<?xml version="1.0" encoding="UTF-8"?>

<!-- generated on 2025-12-09 22:55:30 by Eclipse SUMO sumo Version 1.18.0
<configuration xmlns:xsi="http://www.w3.org/2001/XMLSchema-instance" xsi:noNamespaceSchemaLocation="http://sumo.dlr.de/xsd/sumoConfiguration.xsd">

    <input>
        <net-file value="nets/60p2k/net.net.xml"/>
        <route-files value="nets/60p2k/route_60p2k.rou.xml"/>
    </input>

    <output>
        <summary-output value="result_baseline_1.4_0.1/summary_ep_1.xml"/>
        <tripinfo-output value="result_baseline_1.4_0.1/tripinfo_ep_1.xml"/>
        <vehroute-output value="result_baseline_1.4_0.1/vehroute_ep_1.xml"/>
    </output>

    <time>
        <begin value="0"/>
        <step-length value="1.0"/>
    </time>

    <processing>
        <scale value="1.4"/>
        <time-to-teleport value="600"/>
    </processing>

    <report>
        <verbose value="true"/>
    </report>

    <traci_server>
        <remote-port value="33265"/>
    </traci_server>

    <gui_only>
        <gui-settings-file value="nets/60p2k/gui-settings.xml"/>
    </gui_only>

</configuration>
-->

<tripinfos xmlns:xsi="http://www.w3.org/2001/XMLSchema-instance" xsi:noNamespaceSchemaLocation="http://sumo.dlr.de/xsd/tripinfo_file.xsd">
    <tripinfo id="flow_3_phase1_N_right.0" depart="0.00" departLane="N_in_0" departPos="103.38" departSpeed="3.75" departDelay="0.00" arrival="24.00" arrivalLane="W_out_0" arrivalPos="189.60" arrivalSpeed="14.93" duration="24.00" routeLength="284.85" waitingTime="0.00" waitingCount="0" stopTime="0.00" timeLoss="4.55" rerouteNo="0" devices="vehroute_flow_3_phase1_N_right.0 tripinfo_flow_3_phase1_N_right.0" vType="car" speedFactor="1.09" vaporized=""/>
    <tripinfo id="flow_8_phase1_S_uturn.0" depart="0.00" departLane="S_in_0" departPos="120.11" departSpeed="4.48" departDelay="0.00" arrival="24.00" arrivalLane="S_out_1" arrivalPos="189.60" arrivalSpeed="13.35" duration="24.00" routeLength="263.76" waitingTime="0.00" waitingCount="0" stopTime="0.00" timeLoss="4.90" rerouteNo="0" devices="vehroute_flow_8_phase1_S_uturn.0 tripinfo_flow_8_phase1_S_uturn.0" vType="moto" speedFactor="1.05" vaporized=""/>
    <tripinfo id="flow_5_phase1_S_straight.0" depart="0.00" departLane="S_in_1" departPos="107.37" departSpeed="7.21" departDelay="0.00" arrival="25.00" arrivalLane="N_out_1" arrivalPos="189.60" arrivalSpeed="15.54" duration="25.00" routeLength="292.63" waitingTime="0.00" waitingCount="0" stopTime="0.00" timeLoss="6.40" rerouteNo="0" devices="vehroute_flow_5_phase1_S_straight.0 tripinfo_flow_5_phase1_S_straight.0" vType="moto" speedFactor="1.15" vaporized=""/>
    <tripinfo id="flow_6_phase1_S_left.0" depart="0.00" departLane="S_in_1" departPos="166.01" departSpeed="0.74" departDelay="0.00" arrival="25.00" arrivalLane="W_out_1" arrivalPos="189.60" arrivalSpeed="11.97" duration="25.00" routeLength="232.54" waitingTime="0.00" waitingCount="0" stopTime="0.00" timeLoss="4.34" rerouteNo="0" devices="vehroute_flow_6_phase1_S_left.0 tripinfo_flow_6_phase1_S_left.0" vType="moto" speedFactor="0.88" vaporized=""/>
    <tripinfo id="flow_4_phase1_N_uturn.0" depart="0.00" departLane="N_in_1" departPos="127.60" departSpeed="0.08" departDelay="0.00" arrival="32.00" arrivalLane="N_out_1" arrivalPos="189.60" arrivalSpeed="12.70" duration="32.00" routeLength="256.27" waitingTime="2.00" waitingCount="1" stopTime="0.00" timeLoss="10.46" rerouteNo="0" devices="vehroute_flow_4_phase1_N_uturn.0 tripinfo_flow_4_phase1_N_uturn.0" vType="car" speedFactor="0.92" vaporized=""/>
    <tripinfo id="flow_2_phase1_N_left.0" depart="0.00" departLane="N_in_1" departPos="8.27" departSpeed="8.33" departDelay="0.00" arrival="33.00" arrivalLane="E_out_1" arrivalPos="189.60" arrivalSpeed="13.27" duration="33.00" routeLength="390.28" waitingTime="0.00" waitingCount="0" stopTime="0.00" timeLoss="4.20" rerouteNo="0" devices="vehroute_flow_2_phase1_N_left.0 tripinfo_flow_2_phase1_N_left.0" vType="moto" speedFactor="1.02" vaporized=""/>
    <tripinfo id="flow_1_phase1_N_straight.0" depart="0.00" departLane="N_in_0" departPos="8.62" departSpeed="8.51" departDelay="0.00" arrival="35.00" arrivalLane="S_out_0" arrivalPos="189.60" arrivalSpeed="11.80" duration="35.00" routeLength="391.38" waitingTime="0.00" waitingCount="0" stopTime="0.00" timeLoss="1.38" rerouteNo="0" devices="vehroute_flow_1_phase1_N_straight.0 tripinfo_flow_1_phase1_N_straight.0" vType="bus" speedFactor="0.86" vaporized=""/>
    <tripinfo id="flow_5_phase1_S_straight.1" depart="18.00" departLane="S_in_0" departPos="131.13" departSpeed="9.54" departDelay="0.05" arrival="36.00" arrivalLane="N_out_0" arrivalPos="189.60" arrivalSpeed="15.57" duration="18.00" routeLength="268.87" waitingTime="0.00" waitingCount="0" stopTime="0.00" timeLoss="1.16" rerouteNo="0" devices="vehroute_flow_5_phase1_S_straight.1 tripinfo_flow_5_phase1_S_straight.1" vType="moto" speedFactor="1.16" vaporized=""/>
    <tripinfo id="flow_7_phase1_S_right.0" depart="0.00" departLane="S_in_0" departPos="8.76" departSpeed="8.07" departDelay="0.00" arrival="39.00" arrivalLane="E_out_0" arrivalPos="189.60" arrivalSpeed="11.18" duration="39.00" routeLength="379.47" waitingTime="0.00" waitingCount="0" stopTime="0.00" timeLoss="5.93" rerouteNo="0" devices="vehroute_flow_7_phase1_S_right.0 tripinfo_flow_7_phase1_S_right.0" vType="container" speedFactor="0.85" vaporized=""/>
    <tripinfo id="flow_1_phase1_N_straight.1" depart="19.00" departLane="N_in_1" departPos="31.93" departSpeed="9.28" departDelay="0.66" arrival="44.00" arrivalLane="S_out_1" arrivalPos="189.60" arrivalSpeed="15.40" duration="25.00" routeLength="368.07" waitingTime="0.00" waitingCount="0" stopTime="0.00" timeLoss="1.43" rerouteNo="0" devices="vehroute_flow_1_phase1_N_straight.1 tripinfo_flow_1_phase1_N_straight.1" vType="moto" speedFactor="1.19" vaporized=""/>
    <tripinfo id="flow_14_phase1_W_left.0" depart="0.00" departLane="W_in_1" departPos="182.88" departSpeed="5.61" departDelay="0.00" arrival="60.00" arrivalLane="N_out_1" arrivalPos="189.60" arrivalSpeed="13.30" duration="60.00" routeLength="215.67" waitingTime="37.00" waitingCount="1" stopTime="0.00" timeLoss="43.93" rerouteNo="0" devices="vehroute_flow_14_phase1_W_left.0 tripinfo_flow_14_phase1_W_left.0" vType="moto" speedFactor="1.01" vaporized=""/>
    <tripinfo id="flow_15_phase1_W_right.0" depart="0.00" departLane="W_in_0" departPos="108.38" departSpeed="2.63" departDelay="0.00" arrival="62.00" arrivalLane="S_out_0" arrivalPos="189.60" arrivalSpeed="10.72" duration="62.00" routeLength="279.85" waitingTime="30.00" waitingCount="1" stopTime="0.00" timeLoss="37.11" rerouteNo="0" devices="vehroute_flow_15_phase1_W_right.0 tripinfo_flow_15_phase1_W_right.0" vType="moto" speedFactor="0.85" vaporized=""/>
    <tripinfo id="flow_9_phase1_E_straight.0" depart="0.00" departLane="E_in_0" departPos="168.29" departSpeed="9.83" departDelay="0.00" arrival="65.00" arrivalLane="W_out_0" arrivalPos="189.60" arrivalSpeed="11.95" duration="65.00" routeLength="231.71" waitingTime="35.00" waitingCount="1" stopTime="0.00" timeLoss="45.88" rerouteNo="0" devices="vehroute_flow_9_phase1_E_straight.0 tripinfo_flow_9_phase1_E_straight.0" vType="truck" speedFactor="0.90" vaporized=""/>
    <tripinfo id="flow_10_phase1_E_left.0" depart="0.00" departLane="E_in_0" departPos="44.88" departSpeed="7.69" departDelay="0.00" arrival="65.00" arrivalLane="S_out_1" arrivalPos="189.60" arrivalSpeed="13.51" duration="65.00" routeLength="353.67" waitingTime="27.00" waitingCount="1" stopTime="0.00" timeLoss="38.66" rerouteNo="0" devices="vehroute_flow_10_phase1_E_left.0 tripinfo_flow_10_phase1_E_left.0" vType="truck" speedFactor="1.02" vaporized=""/>
    <tripinfo id="flow_5_phase1_S_straight.2" depart="36.00" departLane="S_in_1" departPos="12.70" departSpeed="12.41" departDelay="0.09" arrival="67.00" arrivalLane="N_out_0" arrivalPos="189.60" arrivalSpeed="13.12" duration="31.00" routeLength="387.30" waitingTime="0.00" waitingCount="0" stopTime="0.00" timeLoss="1.44" rerouteNo="0" devices="vehroute_flow_5_phase1_S_straight.2 tripinfo_flow_5_phase1_S_straight.2" vType="moto" speedFactor="0.96" vaporized=""/>
    <tripinfo id="flow_1_phase1_N_straight.2" depart="37.00" departLane="N_in_1" departPos="59.51" departSpeed="13.32" departDelay="0.31" arrival="67.00" arrivalLane="S_out_0" arrivalPos="189.60" arrivalSpeed="13.30" duration="30.00" routeLength="340.49" waitingTime="0.00" waitingCount="0" stopTime="0.00" timeLoss="4.07" rerouteNo="0" devices="vehroute_flow_1_phase1_N_straight.2 tripinfo_flow_1_phase1_N_straight.2" vType="bus" speedFactor="0.97" vaporized=""/>
    <tripinfo id="flow_6_phase1_S_left.1" depart="46.00" departLane="S_in_1" departPos="110.92" departSpeed="11.99" departDelay="0.60" arrival="69.00" arrivalLane="W_out_1" arrivalPos="189.60" arrivalSpeed="13.93" duration="23.00" routeLength="287.63" waitingTime="0.00" waitingCount="0" stopTime="0.00" timeLoss="2.44" rerouteNo="0" devices="vehroute_flow_6_phase1_S_left.1 tripinfo_flow_6_phase1_S_left.1" vType="moto" speedFactor="1.05" vaporized=""/>
    <tripinfo id="flow_3_phase1_N_right.1" depart="47.00" departLane="N_in_0" departPos="166.00" departSpeed="1.28" departDelay="0.61" arrival="70.00" arrivalLane="W_out_0" arrivalPos="189.60" arrivalSpeed="12.17" duration="23.00" routeLength="222.23" waitingTime="0.00" waitingCount="0" stopTime="0.00" timeLoss="4.13" rerouteNo="0" devices="vehroute_flow_3_phase1_N_right.1 tripinfo_flow_3_phase1_N_right.1" vType="moto" speedFactor="0.88" vaporized=""/>
    <tripinfo id="flow_1_phase1_N_straight.3" depart="56.00" departLane="N_in_0" departPos="125.48" departSpeed="6.79" departDelay="0.97" arrival="77.00" arrivalLane="S_out_0" arrivalPos="189.60" arrivalSpeed="14.37" duration="21.00" routeLength="274.52" waitingTime="0.00" waitingCount="0" stopTime="0.00" timeLoss="1.58" rerouteNo="0" devices="vehroute_flow_1_phase1_N_straight.3 tripinfo_flow_1_phase1_N_straight.3" vType="car" speedFactor="1.05" vaporized=""/>
    <tripinfo id="flow_5_phase1_S_straight.3" depart="54.00" departLane="S_in_0" departPos="56.18" departSpeed="14.54" departDelay="0.14" arrival="78.00" arrivalLane="N_out_0" arrivalPos="189.60" arrivalSpeed="14.45" duration="24.00" routeLength="343.82" waitingTime="0.00" waitingCount="0" stopTime="0.00" timeLoss="0.71" rerouteNo="0" devices="vehroute_flow_5_phase1_S_straight.3 tripinfo_flow_5_phase1_S_straight.3" vType="moto" speedFactor="1.08" vaporized=""/>
    <tripinfo id="flow_7_phase1_S_right.1" depart="45.00" departLane="S_in_1" departPos="66.71" departSpeed="7.87" departDelay="0.90" arrival="81.00" arrivalLane="E_out_0" arrivalPos="189.60" arrivalSpeed="10.61" duration="36.00" routeLength="321.52" waitingTime="0.00" waitingCount="0" stopTime="0.00" timeLoss="4.97" rerouteNo="0" devices="vehroute_flow_7_phase1_S_right.1 tripinfo_flow_7_phase1_S_right.1" vType="container" speedFactor="0.78" vaporized=""/>
    <tripinfo id="flow_2_phase1_N_left.1" depart="45.00" departLane="N_in_0" departPos="8.88" departSpeed="2.82" departDelay="0.65" arrival="82.00" arrivalLane="E_out_1" arrivalPos="189.60" arrivalSpeed="14.53" duration="37.00" routeLength="389.67" waitingTime="2.00" waitingCount="1" stopTime="0.00" timeLoss="11.21" rerouteNo="0" devices="vehroute_flow_2_phase1_N_left.1 tripinfo_flow_2_phase1_N_left.1" vType="moto" speedFactor="1.12" vaporized=""/>
    <tripinfo id="flow_1_phase1_N_straight.4" depart="74.00" departLane="N_in_0" departPos="128.04" departSpeed="4.99" departDelay="0.63" arrival="99.00" arrivalLane="S_out_0" arrivalPos="189.60" arrivalSpeed="12.72" duration="25.00" routeLength="271.96" waitingTime="0.00" waitingCount="0" stopTime="0.00" timeLoss="3.52" rerouteNo="0" devices="vehroute_flow_1_phase1_N_straight.4 tripinfo_flow_1_phase1_N_straight.4" vType="truck" speedFactor="0.92" vaporized=""/>
    <tripinfo id="flow_5_phase1_S_straight.4" depart="72.00" departLane="S_in_0" departPos="26.76" departSpeed="9.62" departDelay="0.18" arrival="102.00" arrivalLane="N_out_0" arrivalPos="189.60" arrivalSpeed="13.05" duration="30.00" routeLength="373.24" waitingTime="0.00" waitingCount="0" stopTime="0.00" timeLoss="1.70" rerouteNo="0" devices="vehroute_flow_5_phase1_S_straight.4 tripinfo_flow_5_phase1_S_straight.4" vType="container" speedFactor="0.97" vaporized=""/>
    <tripinfo id="flow_16_phase1_W_uturn.0" depart="0.00" departLane="W_in_0" departPos="126.68" departSpeed="11.71" departDelay="0.00" arrival="104.00" arrivalLane="W_out_1" arrivalPos="189.60" arrivalSpeed="13.28" duration="104.00" routeLength="257.19" waitingTime="78.00" waitingCount="2" stopTime="0.00" timeLoss="85.01" rerouteNo="0" devices="vehroute_flow_16_phase1_W_uturn.0 tripinfo_flow_16_phase1_W_uturn.0" vType="moto" speedFactor="1.04" vaporized=""/>
    <tripinfo id="flow_12_phase1_E_uturn.0" depart="0.00" departLane="E_in_0" departPos="5.65" departSpeed="13.76" departDelay="0.00" arrival="106.00" arrivalLane="E_out_1" arrivalPos="189.60" arrivalSpeed="14.10" duration="106.00" routeLength="378.22" waitingTime="64.00" waitingCount="2" stopTime="0.00" timeLoss="78.27" rerouteNo="0" devices="vehroute_flow_12_phase1_E_uturn.0 tripinfo_flow_12_phase1_E_uturn.0" vType="moto" speedFactor="1.03" vaporized=""/>
    <tripinfo id="flow_1_phase1_N_straight.5" depart="92.00" departLane="N_in_1" departPos="177.50" departSpeed="6.11" departDelay="0.29" arrival="114.00" arrivalLane="S_out_1" arrivalPos="189.60" arrivalSpeed="12.07" duration="22.00" routeLength="222.50" waitingTime="0.00" waitingCount="0" stopTime="0.00" timeLoss="4.26" rerouteNo="0" devices="vehroute_flow_1_phase1_N_straight.5 tripinfo_flow_1_phase1_N_straight.5" vType="moto" speedFactor="0.90" vaporized=""/>
    <tripinfo id="flow_13_phase1_W_straight.0" depart="0.00" departLane="W_in_0" departPos="24.53" departSpeed="3.79" departDelay="0.00" arrival="115.00" arrivalLane="E_out_0" arrivalPos="189.60" arrivalSpeed="11.28" duration="115.00" routeLength="375.47" waitingTime="61.00" waitingCount="2" stopTime="0.00" timeLoss="81.54" rerouteNo="0" devices="vehroute_flow_13_phase1_W_straight.0 tripinfo_flow_13_phase1_W_straight.0" vType="container" speedFactor="0.82" vaporized=""/>
    <tripinfo id="flow_5_phase1_S_straight.5" depart="90.00" departLane="S_in_0" departPos="179.13" departSpeed="7.48" departDelay="0.23" arrival="116.00" arrivalLane="N_out_0" arrivalPos="189.60" arrivalSpeed="12.02" duration="26.00" routeLength="220.87" waitingTime="3.00" waitingCount="1" stopTime="0.00" timeLoss="9.31" rerouteNo="0" devices="vehroute_flow_5_phase1_S_straight.5 tripinfo_flow_5_phase1_S_straight.5" vType="moto" speedFactor="0.95" vaporized=""/>
    <tripinfo id="flow_7_phase1_S_right.2" depart="89.00" departLane="S_in_0" departPos="52.57" departSpeed="9.36" departDelay="0.80" arrival="117.00" arrivalLane="E_out_0" arrivalPos="189.60" arrivalSpeed="14.73" duration="28.00" routeLength="335.66" waitingTime="0.00" waitingCount="0" stopTime="0.00" timeLoss="5.99" rerouteNo="0" devices="vehroute_flow_7_phase1_S_right.2 tripinfo_flow_7_phase1_S_right.2" vType="moto" speedFactor="1.14" vaporized=""/>
    <tripinfo id="flow_4_phase1_N_uturn.1" depart="90.00" departLane="N_in_1" departPos="162.40" departSpeed="1.34" departDelay="0.37" arrival="117.00" arrivalLane="N_out_1" arrivalPos="189.60" arrivalSpeed="12.99" duration="27.00" routeLength="221.47" waitingTime="0.00" waitingCount="0" stopTime="0.00" timeLoss="8.27" rerouteNo="0" devices="vehroute_flow_4_phase1_N_uturn.1 tripinfo_flow_4_phase1_N_uturn.1" vType="truck" speedFactor="0.94" vaporized=""/>
    <tripinfo id="flow_8_phase1_S_uturn.1" depart="90.00" departLane="S_in_0" departPos="168.21" departSpeed="0.18" departDelay="0.53" arrival="118.00" arrivalLane="S_out_1" arrivalPos="189.60" arrivalSpeed="11.73" duration="28.00" routeLength="215.66" waitingTime="2.00" waitingCount="1" stopTime="0.00" timeLoss="8.87" rerouteNo="0" devices="vehroute_flow_8_phase1_S_uturn.1 tripinfo_flow_8_phase1_S_uturn.1" vType="moto" speedFactor="0.89" vaporized=""/>
    <tripinfo id="flow_6_phase1_S_left.2" depart="91.00" departLane="S_in_1" departPos="92.22" departSpeed="0.17" departDelay="0.20" arrival="118.00" arrivalLane="W_out_1" arrivalPos="189.60" arrivalSpeed="13.88" duration="27.00" routeLength="306.33" waitingTime="0.00" waitingCount="0" stopTime="0.00" timeLoss="5.55" rerouteNo="0" devices="vehroute_flow_6_phase1_S_left.2 tripinfo_flow_6_phase1_S_left.2" vType="moto" speedFactor="1.07" vaporized=""/>
    <tripinfo id="flow_2_phase1_N_left.2" depart="89.00" departLane="N_in_0" departPos="125.76" departSpeed="4.77" departDelay="0.30" arrival="119.00" arrivalLane="E_out_1" arrivalPos="189.60" arrivalSpeed="13.73" duration="30.00" routeLength="272.79" waitingTime="0.00" waitingCount="0" stopTime="0.00" timeLoss="8.68" rerouteNo="0" devices="vehroute_flow_2_phase1_N_left.2 tripinfo_flow_2_phase1_N_left.2" vType="moto" speedFactor="1.00" vaporized=""/>
    <tripinfo id="flow_3_phase1_N_right.2" depart="93.00" departLane="N_in_1" departPos="63.10" departSpeed="7.11" departDelay="0.22" arrival="119.00" arrivalLane="W_out_0" arrivalPos="189.60" arrivalSpeed="14.17" duration="26.00" routeLength="325.13" waitingTime="0.00" waitingCount="0" stopTime="0.00" timeLoss="4.08" rerouteNo="0" devices="vehroute_flow_3_phase1_N_right.2 tripinfo_flow_3_phase1_N_right.2" vType="moto" speedFactor="1.10" vaporized=""/>
    <tripinfo id="flow_5_phase1_S_straight.6" depart="108.00" departLane="S_in_1" departPos="29.88" departSpeed="12.24" departDelay="0.28" arrival="134.00" arrivalLane="N_out_1" arrivalPos="189.60" arrivalSpeed="14.40" duration="26.00" routeLength="370.12" waitingTime="0.00" waitingCount="0" stopTime="0.00" timeLoss="1.28" rerouteNo="0" devices="vehroute_flow_5_phase1_S_straight.6 tripinfo_flow_5_phase1_S_straight.6" vType="moto" speedFactor="1.10" vaporized=""/>
    <tripinfo id="flow_1_phase1_N_straight.6" depart="111.00" departLane="N_in_0" departPos="42.85" departSpeed="1.33" departDelay="0.94" arrival="142.00" arrivalLane="S_out_0" arrivalPos="189.60" arrivalSpeed="13.39" duration="31.00" routeLength="357.15" waitingTime="0.00" waitingCount="0" stopTime="0.00" timeLoss="3.98" rerouteNo="0" devices="vehroute_flow_1_phase1_N_straight.6 tripinfo_flow_1_phase1_N_straight.6" vType="car" speedFactor="0.98" vaporized=""/>
    <tripinfo id="flow_13_phase1_W_straight.1" depart="19.00" departLane="W_in_1" departPos="121.65" departSpeed="2.86" departDelay="0.84" arrival="148.00" arrivalLane="E_out_1" arrivalPos="189.60" arrivalSpeed="14.93" duration="129.00" routeLength="278.35" waitingTime="96.00" waitingCount="3" stopTime="0.00" timeLoss="111.04" rerouteNo="0" devices="vehroute_flow_13_phase1_W_straight.1 tripinfo_flow_13_phase1_W_straight.1" vType="car" speedFactor="1.12" vaporized=""/>
    <tripinfo id="flow_15_phase1_W_right.1" depart="45.00" departLane="W_in_0" departPos="73.90" departSpeed="9.22" departDelay="0.44" arrival="148.00" arrivalLane="S_out_0" arrivalPos="189.60" arrivalSpeed="14.01" duration="103.00" routeLength="314.33" waitingTime="67.00" waitingCount="2" stopTime="0.00" timeLoss="81.34" rerouteNo="0" devices="vehroute_flow_15_phase1_W_right.1 tripinfo_flow_15_phase1_W_right.1" vType="moto" speedFactor="1.08" vaporized=""/>
    <tripinfo id="flow_9_phase1_E_straight.1" depart="18.00" departLane="E_in_1" departPos="58.36" departSpeed="11.64" departDelay="0.53" arrival="153.00" arrivalLane="W_out_1" arrivalPos="189.60" arrivalSpeed="11.07" duration="135.00" routeLength="341.64" waitingTime="87.00" waitingCount="3" stopTime="0.00" timeLoss="105.96" rerouteNo="0" devices="vehroute_flow_9_phase1_E_straight.1 tripinfo_flow_9_phase1_E_straight.1" vType="moto" speedFactor="0.87" vaporized=""/>
    <tripinfo id="flow_1_phase1_N_straight.7" depart="129.00" departLane="N_in_1" departPos="150.35" departSpeed="8.40" departDelay="0.60" arrival="153.00" arrivalLane="S_out_1" arrivalPos="189.60" arrivalSpeed="14.27" duration="24.00" routeLength="249.65" waitingTime="0.00" waitingCount="0" stopTime="0.00" timeLoss="6.45" rerouteNo="0" devices="vehroute_flow_1_phase1_N_straight.7 tripinfo_flow_1_phase1_N_straight.7" vType="moto" speedFactor="1.06" vaporized=""/>
    <tripinfo id="flow_11_phase1_E_right.0" depart="0.00" departLane="E_in_1" departPos="144.95" departSpeed="4.02" departDelay="0.00" arrival="154.00" arrivalLane="N_out_0" arrivalPos="189.60" arrivalSpeed="13.10" duration="154.00" routeLength="243.28" waitingTime="115.00" waitingCount="3" stopTime="0.00" timeLoss="134.19" rerouteNo="0" devices="vehroute_flow_11_phase1_E_right.0 tripinfo_flow_11_phase1_E_right.0" vType="bus" speedFactor="0.96" vaporized=""/>
    <tripinfo id="flow_5_phase1_S_straight.7" depart="126.00" departLane="S_in_1" departPos="88.32" departSpeed="10.69" departDelay="0.32" arrival="154.00" arrivalLane="N_out_1" arrivalPos="189.60" arrivalSpeed="12.39" duration="28.00" routeLength="311.68" waitingTime="0.00" waitingCount="0" stopTime="0.00" timeLoss="2.74" rerouteNo="0" devices="vehroute_flow_5_phase1_S_straight.7 tripinfo_flow_5_phase1_S_straight.7" vType="bus" speedFactor="0.90" vaporized=""/>
    <tripinfo id="flow_7_phase1_S_right.3" depart="133.00" departLane="S_in_0" departPos="107.99" departSpeed="1.26" departDelay="0.70" arrival="158.00" arrivalLane="E_out_0" arrivalPos="189.60" arrivalSpeed="14.20" duration="25.00" routeLength="280.24" waitingTime="0.00" waitingCount="0" stopTime="0.00" timeLoss="5.68" rerouteNo="0" devices="vehroute_flow_7_phase1_S_right.3 tripinfo_flow_7_phase1_S_right.3" vType="moto" speedFactor="1.07" vaporized=""/>
    <tripinfo id="flow_6_phase1_S_left.3" depart="137.00" departLane="S_in_1" departPos="140.12" departSpeed="12.09" departDelay="0.80" arrival="158.00" arrivalLane="W_out_1" arrivalPos="189.60" arrivalSpeed="14.12" duration="21.00" routeLength="258.43" waitingTime="0.00" waitingCount="0" stopTime="0.00" timeLoss="2.83" rerouteNo="0" devices="vehroute_flow_6_phase1_S_left.3 tripinfo_flow_6_phase1_S_left.3" vType="car" speedFactor="1.10" vaporized=""/>
    <tripinfo id="flow_2_phase1_N_left.3" depart="134.00" departLane="N_in_1" departPos="86.40" departSpeed="1.47" departDelay="0.95" arrival="165.00" arrivalLane="E_out_1" arrivalPos="189.60" arrivalSpeed="11.92" duration="31.00" routeLength="312.15" waitingTime="0.00" waitingCount="0" stopTime="0.00" timeLoss="4.86" rerouteNo="0" devices="vehroute_flow_2_phase1_N_left.3 tripinfo_flow_2_phase1_N_left.3" vType="moto" speedFactor="0.89" vaporized=""/>
    <tripinfo id="flow_5_phase1_S_straight.8" depart="144.00" departLane="S_in_1" departPos="84.74" departSpeed="4.18" departDelay="0.37" arrival="166.00" arrivalLane="N_out_1" arrivalPos="189.60" arrivalSpeed="15.33" duration="22.00" routeLength="315.26" waitingTime="0.00" waitingCount="0" stopTime="0.00" timeLoss="1.90" rerouteNo="0" devices="vehroute_flow_5_phase1_S_straight.8 tripinfo_flow_5_phase1_S_straight.8" vType="emergency" speedFactor="1.14" vaporized=""/>
    <tripinfo id="flow_3_phase1_N_right.3" depart="140.00" departLane="N_in_1" departPos="2.21" departSpeed="7.06" departDelay="0.83" arrival="173.00" arrivalLane="W_out_0" arrivalPos="189.60" arrivalSpeed="12.53" duration="33.00" routeLength="386.02" waitingTime="0.00" waitingCount="0" stopTime="0.00" timeLoss="3.32" rerouteNo="0" devices="vehroute_flow_3_phase1_N_right.3 tripinfo_flow_3_phase1_N_right.3" vType="moto" speedFactor="0.96" vaporized=""/>
    <tripinfo id="flow_1_phase1_N_straight.8" depart="147.00" departLane="N_in_0" departPos="2.52" departSpeed="4.94" departDelay="0.26" arrival="179.00" arrivalLane="S_out_0" arrivalPos="189.60" arrivalSpeed="12.41" duration="32.00" routeLength="397.48" waitingTime="0.00" waitingCount="0" stopTime="0.00" timeLoss="2.18" rerouteNo="0" devices="vehroute_flow_1_phase1_N_straight.8 tripinfo_flow_1_phase1_N_straight.8" vType="moto" speedFactor="0.97" vaporized=""/>
    <tripinfo id="flow_5_phase1_S_straight.9" depart="162.00" departLane="S_in_0" departPos="174.11" departSpeed="0.50" departDelay="0.41" arrival="181.00" arrivalLane="N_out_0" arrivalPos="189.60" arrivalSpeed="14.71" duration="19.00" routeLength="225.89" waitingTime="0.00" waitingCount="0" stopTime="0.00" timeLoss="4.54" rerouteNo="0" devices="vehroute_flow_5_phase1_S_straight.9 tripinfo_flow_5_phase1_S_straight.9" vType="moto" speedFactor="1.30" vaporized=""/>
    <tripinfo id="flow_1_phase1_N_straight.9" depart="166.00" departLane="N_in_1" departPos="103.27" departSpeed="10.69" departDelay="0.91" arrival="189.00" arrivalLane="S_out_1" arrivalPos="189.60" arrivalSpeed="12.80" duration="23.00" routeLength="296.73" waitingTime="0.00" waitingCount="0" stopTime="0.00" timeLoss="0.74" rerouteNo="0" devices="vehroute_flow_1_phase1_N_straight.9 tripinfo_flow_1_phase1_N_straight.9" vType="truck" speedFactor="0.97" vaporized=""/>
    <tripinfo id="flow_11_phase1_E_right.1" depart="45.00" departLane="E_in_1" departPos="128.68" departSpeed="3.06" departDelay="0.91" arrival="194.00" arrivalLane="N_out_0" arrivalPos="189.60" arrivalSpeed="13.87" duration="149.00" routeLength="259.55" waitingTime="115.00" waitingCount="3" stopTime="0.00" timeLoss="129.69" rerouteNo="0" devices="vehroute_flow_11_phase1_E_right.1 tripinfo_flow_11_phase1_E_right.1" vType="moto" speedFactor="1.04" vaporized=""/>
    <tripinfo id="flow_13_phase1_W_straight.3" depart="55.00" departLane="W_in_0" departPos="132.62" departSpeed="5.49" departDelay="0.51" arrival="194.00" arrivalLane="E_out_0" arrivalPos="189.60" arrivalSpeed="15.18" duration="139.00" routeLength="267.38" waitingTime="101.00" waitingCount="3" stopTime="0.00" timeLoss="121.58" rerouteNo="0" devices="vehroute_flow_13_phase1_W_straight.3 tripinfo_flow_13_phase1_W_straight.3" vType="moto" speedFactor="1.20" vaporized=""/>
    <tripinfo id="flow_9_phase1_E_straight.2" depart="35.00" departLane="E_in_1" departPos="52.87" departSpeed="0.38" departDelay="0.05" arrival="196.00" arrivalLane="W_out_0" arrivalPos="189.60" arrivalSpeed="13.47" duration="161.00" routeLength="347.13" waitingTime="115.00" waitingCount="3" stopTime="0.00" timeLoss="135.46" rerouteNo="0" devices="vehroute_flow_9_phase1_E_straight.2 tripinfo_flow_9_phase1_E_straight.2" vType="moto" speedFactor="0.99" vaporized=""/>
    <tripinfo id="flow_13_phase1_W_straight.2" depart="37.00" departLane="W_in_1" departPos="107.53" departSpeed="1.11" departDelay="0.67" arrival="197.00" arrivalLane="E_out_0" arrivalPos="189.60" arrivalSpeed="11.71" duration="160.00" routeLength="292.47" waitingTime="122.00" waitingCount="3" stopTime="0.00" timeLoss="136.49" rerouteNo="0" devices="vehroute_flow_13_phase1_W_straight.2 tripinfo_flow_13_phase1_W_straight.2" vType="moto" speedFactor="0.93" vaporized=""/>
    <tripinfo id="flow_8_phase1_S_uturn.2" depart="179.00" departLane="S_in_1" departPos="188.57" departSpeed="1.03" departDelay="0.06" arrival="199.00" arrivalLane="S_out_1" arrivalPos="189.60" arrivalSpeed="12.53" duration="20.00" routeLength="195.30" waitingTime="0.00" waitingCount="0" stopTime="0.00" timeLoss="3.89" rerouteNo="0" devices="vehroute_flow_8_phase1_S_uturn.2 tripinfo_flow_8_phase1_S_uturn.2" vType="moto" speedFactor="0.99" vaporized=""/>
    <tripinfo id="flow_1_phase1_N_straight.10" depart="184.00" departLane="N_in_0" departPos="180.90" departSpeed="12.93" departDelay="0.57" arrival="200.00" arrivalLane="S_out_0" arrivalPos="189.60" arrivalSpeed="14.25" duration="16.00" routeLength="219.10" waitingTime="0.00" waitingCount="0" stopTime="0.00" timeLoss="0.45" rerouteNo="0" devices="vehroute_flow_1_phase1_N_straight.10 tripinfo_flow_1_phase1_N_straight.10" vType="bus" speedFactor="1.03" vaporized=""/>
    <tripinfo id="flow_4_phase1_N_uturn.2" depart="180.00" departLane="N_in_1" departPos="146.82" departSpeed="13.19" departDelay="0.75" arrival="202.00" arrivalLane="N_out_1" arrivalPos="189.60" arrivalSpeed="13.67" duration="22.00" routeLength="237.05" waitingTime="0.00" waitingCount="0" stopTime="0.00" timeLoss="4.15" rerouteNo="0" devices="vehroute_flow_4_phase1_N_uturn.2 tripinfo_flow_4_phase1_N_uturn.2" vType="car" speedFactor="1.03" vaporized=""/>
    <tripinfo id="flow_7_phase1_S_right.4" depart="177.00" departLane="S_in_1" departPos="90.82" departSpeed="10.68" departDelay="0.60" arrival="203.00" arrivalLane="E_out_0" arrivalPos="189.60" arrivalSpeed="12.60" duration="26.00" routeLength="297.41" waitingTime="0.00" waitingCount="0" stopTime="0.00" timeLoss="3.26" rerouteNo="0" devices="vehroute_flow_7_phase1_S_right.4 tripinfo_flow_7_phase1_S_right.4" vType="moto" speedFactor="0.96" vaporized=""/>
    <tripinfo id="flow_6_phase1_S_left.4" depart="182.00" departLane="S_in_1" departPos="159.87" departSpeed="7.64" departDelay="0.40" arrival="205.00" arrivalLane="W_out_1" arrivalPos="189.60" arrivalSpeed="13.87" duration="23.00" routeLength="238.68" waitingTime="0.00" waitingCount="0" stopTime="0.00" timeLoss="4.88" rerouteNo="0" devices="vehroute_flow_6_phase1_S_left.4 tripinfo_flow_6_phase1_S_left.4" vType="moto" speedFactor="1.04" vaporized=""/>
    <tripinfo id="flow_2_phase1_N_left.4" depart="178.00" departLane="N_in_1" departPos="60.50" departSpeed="3.46" departDelay="0.60" arrival="206.00" arrivalLane="E_out_1" arrivalPos="189.60" arrivalSpeed="15.86" duration="28.00" routeLength="338.05" waitingTime="0.00" waitingCount="0" stopTime="0.00" timeLoss="5.52" rerouteNo="0" devices="vehroute_flow_2_phase1_N_left.4 tripinfo_flow_2_phase1_N_left.4" vType="moto" speedFactor="1.16" vaporized=""/>
    <tripinfo id="flow_5_phase1_S_straight.10" depart="180.00" departLane="S_in_0" departPos="5.05" departSpeed="11.41" departDelay="0.46" arrival="210.00" arrivalLane="N_out_0" arrivalPos="189.60" arrivalSpeed="13.32" duration="30.00" routeLength="394.95" waitingTime="0.00" waitingCount="0" stopTime="0.00" timeLoss="1.48" rerouteNo="0" devices="vehroute_flow_5_phase1_S_straight.10 tripinfo_flow_5_phase1_S_straight.10" vType="moto" speedFactor="1.03" vaporized=""/>