<?xml version="1.0" encoding="UTF-8"?>

<!-- generated on 2025-12-09 22:47:06 by Eclipse SUMO sumo Version 1.18.0
<configuration xmlns:xsi="http://www.w3.org/2001/XMLSchema-instance" xsi:noNamespaceSchemaLocation="http://sumo.dlr.de/xsd/sumoConfiguration.xsd">

    <input>
        <net-file value="nets/60p2k/net.net.xml"/>
        <route-files value="nets/60p2k/route_temp_566_135378486671152_42584019.rou.xml"/>
    </input>

    <output>
        <summary-output value="result_ddqn_1.4_0.1/summary_ep_4.xml"/>
        <tripinfo-output value="result_ddqn_1.4_0.1/tripinfo_ep_4.xml"/>
        <vehroute-output value="result_ddqn_1.4_0.1/vehroute_ep_4.xml"/>
    </output>

    <time>
        <begin value="0"/>
    </time>

    <report>
        <verbose value="true"/>
        <no-warnings value="true"/>
        <no-step-log value="true"/>
    </report>

    <traci_server>
        <remote-port value="41337"/>
    </traci_server>

    <gui_only>
        <gui-settings-file value="nets/60p2k/gui-settings.xml"/>
        <quit-on-end value="true"/>
    </gui_only>

</configuration>
-->

<tripinfos xmlns:xsi="http://www.w3.org/2001/XMLSchema-instance" xsi:noNamespaceSchemaLocation="http://sumo.dlr.de/xsd/tripinfo_file.xsd">
    <tripinfo id="flow_3_phase1_N_right.0" depart="0.00" departLane="N_in_0" departPos="103.38" departSpeed="3.75" departDelay="0.00" arrival="24.00" arrivalLane="W_out_0" arrivalPos="189.60" arrivalSpeed="14.93" duration="24.00" routeLength="284.85" waitingTime="0.00" waitingCount="0" stopTime="0.00" timeLoss="4.55" rerouteNo="0" devices="vehroute_flow_3_phase1_N_right.0 tripinfo_flow_3_phase1_N_right.0" vType="car" speedFactor="1.09" vaporized=""/>
    <tripinfo id="flow_8_phase1_S_uturn.0" depart="0.00" departLane="S_in_0" departPos="120.11" departSpeed="4.48" departDelay="0.00" arrival="24.00" arrivalLane="S_out_1" arrivalPos="189.60" arrivalSpeed="14.01" duration="24.00" routeLength="263.76" waitingTime="0.00" waitingCount="0" stopTime="0.00" timeLoss="4.94" rerouteNo="0" devices="vehroute_flow_8_phase1_S_uturn.0 tripinfo_flow_8_phase1_S_uturn.0" vType="moto" speedFactor="1.05" vaporized=""/>
    <tripinfo id="flow_6_phase1_S_left.0" depart="0.00" departLane="S_in_1" departPos="166.01" departSpeed="0.74" departDelay="0.00" arrival="25.00" arrivalLane="W_out_1" arrivalPos="189.60" arrivalSpeed="11.57" duration="25.00" routeLength="232.54" waitingTime="0.00" waitingCount="0" stopTime="0.00" timeLoss="4.35" rerouteNo="0" devices="vehroute_flow_6_phase1_S_left.0 tripinfo_flow_6_phase1_S_left.0" vType="moto" speedFactor="0.88" vaporized=""/>
    <tripinfo id="flow_5_phase1_S_straight.0" depart="0.00" departLane="S_in_1" departPos="107.37" departSpeed="7.21" departDelay="0.00" arrival="26.00" arrivalLane="S_out_1" arrivalPos="189.60" arrivalSpeed="15.07" duration="26.00" routeLength="276.50" waitingTime="0.00" waitingCount="0" stopTime="0.00" timeLoss="7.14" rerouteNo="0" devices="vehroute_flow_5_phase1_S_straight.0 tripinfo_flow_5_phase1_S_straight.0" vType="moto" speedFactor="1.15" vaporized=""/>
    <tripinfo id="flow_4_phase1_N_uturn.0" depart="0.00" departLane="N_in_1" departPos="127.60" departSpeed="0.08" departDelay="0.00" arrival="27.00" arrivalLane="N_out_1" arrivalPos="189.60" arrivalSpeed="11.91" duration="27.00" routeLength="256.27" waitingTime="0.00" waitingCount="0" stopTime="0.00" timeLoss="6.22" rerouteNo="0" devices="vehroute_flow_4_phase1_N_uturn.0 tripinfo_flow_4_phase1_N_uturn.0" vType="car" speedFactor="0.92" vaporized=""/>
    <tripinfo id="flow_2_phase1_N_left.0" depart="0.00" departLane="N_in_1" departPos="8.27" departSpeed="8.33" departDelay="0.00" arrival="31.00" arrivalLane="E_out_1" arrivalPos="189.60" arrivalSpeed="13.89" duration="31.00" routeLength="390.28" waitingTime="0.00" waitingCount="0" stopTime="0.00" timeLoss="2.69" rerouteNo="0" devices="vehroute_flow_2_phase1_N_left.0 tripinfo_flow_2_phase1_N_left.0" vType="moto" speedFactor="1.02" vaporized=""/>
    <tripinfo id="flow_16_phase1_W_uturn.0" depart="0.00" departLane="W_in_0" departPos="135.67" departSpeed="9.64" departDelay="0.00" arrival="36.00" arrivalLane="W_out_1" arrivalPos="189.60" arrivalSpeed="14.32" duration="36.00" routeLength="248.20" waitingTime="11.00" waitingCount="1" stopTime="0.00" timeLoss="16.85" rerouteNo="0" devices="vehroute_flow_16_phase1_W_uturn.0 tripinfo_flow_16_phase1_W_uturn.0" vType="moto" speedFactor="1.04" vaporized=""/>
    <tripinfo id="flow_15_phase1_W_right.0" depart="0.00" departLane="W_in_1" departPos="153.90" departSpeed="6.73" departDelay="0.00" arrival="39.00" arrivalLane="S_out_0" arrivalPos="189.60" arrivalSpeed="10.73" duration="39.00" routeLength="234.33" waitingTime="12.00" waitingCount="1" stopTime="0.00" timeLoss="17.62" rerouteNo="0" devices="vehroute_flow_15_phase1_W_right.0 tripinfo_flow_15_phase1_W_right.0" vType="moto" speedFactor="0.85" vaporized=""/>
    <tripinfo id="flow_9_phase1_E_straight.0" depart="0.00" departLane="E_in_0" departPos="168.29" departSpeed="9.83" departDelay="0.00" arrival="41.00" arrivalLane="W_out_0" arrivalPos="189.60" arrivalSpeed="12.37" duration="41.00" routeLength="231.71" waitingTime="11.00" waitingCount="1" stopTime="0.00" timeLoss="21.78" rerouteNo="0" devices="vehroute_flow_9_phase1_E_straight.0 tripinfo_flow_9_phase1_E_straight.0" vType="truck" speedFactor="0.90" vaporized=""/>
    <tripinfo id="flow_11_phase1_E_right.0" depart="0.00" departLane="E_in_1" departPos="144.95" departSpeed="4.02" departDelay="0.00" arrival="42.00" arrivalLane="N_out_0" arrivalPos="189.60" arrivalSpeed="12.61" duration="42.00" routeLength="243.28" waitingTime="10.00" waitingCount="1" stopTime="0.00" timeLoss="22.11" rerouteNo="0" devices="vehroute_flow_11_phase1_E_right.0 tripinfo_flow_11_phase1_E_right.0" vType="bus" speedFactor="0.96" vaporized=""/>
    <tripinfo id="flow_14_phase1_W_left.0" depart="0.00" departLane="W_in_1" departPos="42.31" departSpeed="3.71" departDelay="0.00" arrival="42.00" arrivalLane="N_out_1" arrivalPos="189.60" arrivalSpeed="13.49" duration="42.00" routeLength="356.24" waitingTime="5.00" waitingCount="2" stopTime="0.00" timeLoss="15.05" rerouteNo="0" devices="vehroute_flow_14_phase1_W_left.0 tripinfo_flow_14_phase1_W_left.0" vType="moto" speedFactor="1.01" vaporized=""/>
    <tripinfo id="flow_9_phase1_E_straight.1" depart="18.00" departLane="E_in_0" departPos="93.39" departSpeed="3.73" departDelay="0.52" arrival="46.00" arrivalLane="W_out_0" arrivalPos="189.60" arrivalSpeed="11.41" duration="28.00" routeLength="306.61" waitingTime="0.00" waitingCount="0" stopTime="0.00" timeLoss="2.48" rerouteNo="0" devices="vehroute_flow_9_phase1_E_straight.1 tripinfo_flow_9_phase1_E_straight.1" vType="moto" speedFactor="0.87" vaporized=""/>
    <tripinfo id="flow_13_phase1_W_straight.0" depart="0.00" departLane="W_in_0" departPos="77.99" departSpeed="3.79" departDelay="0.00" arrival="47.00" arrivalLane="E_out_0" arrivalPos="189.60" arrivalSpeed="10.82" duration="47.00" routeLength="322.01" waitingTime="3.00" waitingCount="1" stopTime="0.00" timeLoss="18.63" rerouteNo="0" devices="vehroute_flow_13_phase1_W_straight.0 tripinfo_flow_13_phase1_W_straight.0" vType="container" speedFactor="0.82" vaporized=""/>
    <tripinfo id="flow_7_phase1_S_right.0" depart="0.00" departLane="W_in_0" departPos="8.76" departSpeed="8.07" departDelay="0.00" arrival="49.00" arrivalLane="E_out_1" arrivalPos="189.60" arrivalSpeed="11.40" duration="49.00" routeLength="391.24" waitingTime="0.00" waitingCount="0" stopTime="0.00" timeLoss="15.05" rerouteNo="0" devices="vehroute_flow_7_phase1_S_right.0 tripinfo_flow_7_phase1_S_right.0" vType="container" speedFactor="0.85" vaporized=""/>
    <tripinfo id="flow_10_phase1_E_left.0" depart="0.00" departLane="E_in_0" departPos="44.88" departSpeed="7.69" departDelay="0.00" arrival="54.00" arrivalLane="S_out_1" arrivalPos="189.60" arrivalSpeed="13.45" duration="54.00" routeLength="353.67" waitingTime="11.00" waitingCount="2" stopTime="0.00" timeLoss="27.44" rerouteNo="0" devices="vehroute_flow_10_phase1_E_left.0 tripinfo_flow_10_phase1_E_left.0" vType="truck" speedFactor="1.02" vaporized=""/>
    <tripinfo id="flow_1_phase1_N_straight.1" depart="19.00" departLane="N_in_1" departPos="181.05" departSpeed="2.69" departDelay="0.66" arrival="55.00" arrivalLane="S_out_1" arrivalPos="189.60" arrivalSpeed="15.44" duration="36.00" routeLength="218.95" waitingTime="9.00" waitingCount="2" stopTime="0.00" timeLoss="22.08" rerouteNo="0" devices="vehroute_flow_1_phase1_N_straight.1 tripinfo_flow_1_phase1_N_straight.1" vType="moto" speedFactor="1.19" vaporized=""/>
    <tripinfo id="flow_1_phase1_N_straight.0" depart="0.00" departLane="N_in_0" departPos="8.62" departSpeed="8.51" departDelay="0.00" arrival="56.00" arrivalLane="S_out_0" arrivalPos="189.60" arrivalSpeed="11.31" duration="56.00" routeLength="391.38" waitingTime="11.00" waitingCount="1" stopTime="0.00" timeLoss="22.46" rerouteNo="0" devices="vehroute_flow_1_phase1_N_straight.0 tripinfo_flow_1_phase1_N_straight.0" vType="bus" speedFactor="0.86" vaporized=""/>
    <tripinfo id="flow_5_phase1_S_straight.1" depart="18.00" departLane="S_in_1" departPos="177.29" departSpeed="8.41" departDelay="0.05" arrival="57.00" arrivalLane="S_out_1" arrivalPos="189.60" arrivalSpeed="15.62" duration="39.00" routeLength="206.58" waitingTime="17.00" waitingCount="2" stopTime="0.00" timeLoss="24.73" rerouteNo="0" devices="vehroute_flow_5_phase1_S_straight.1 tripinfo_flow_5_phase1_S_straight.1" vType="moto" speedFactor="1.16" vaporized=""/>
    <tripinfo id="flow_13_phase1_W_straight.1" depart="19.00" departLane="W_in_1" departPos="28.79" departSpeed="10.01" departDelay="0.84" arrival="61.00" arrivalLane="E_out_0" arrivalPos="189.60" arrivalSpeed="14.39" duration="42.00" routeLength="371.21" waitingTime="9.00" waitingCount="1" stopTime="0.00" timeLoss="17.49" rerouteNo="0" devices="vehroute_flow_13_phase1_W_straight.1 tripinfo_flow_13_phase1_W_straight.1" vType="car" speedFactor="1.12" vaporized=""/>
    <tripinfo id="flow_12_phase1_E_uturn.0" depart="0.00" departLane="E_in_0" departPos="5.65" departSpeed="13.76" departDelay="0.00" arrival="62.00" arrivalLane="E_out_1" arrivalPos="189.60" arrivalSpeed="13.86" duration="62.00" routeLength="378.22" waitingTime="17.00" waitingCount="3" stopTime="0.00" timeLoss="34.26" rerouteNo="0" devices="vehroute_flow_12_phase1_E_uturn.0 tripinfo_flow_12_phase1_E_uturn.0" vType="moto" speedFactor="1.03" vaporized=""/>
    <tripinfo id="flow_9_phase1_E_straight.2" depart="35.00" departLane="E_in_1" departPos="103.67" departSpeed="3.85" departDelay="0.05" arrival="63.00" arrivalLane="W_out_0" arrivalPos="189.60" arrivalSpeed="13.63" duration="28.00" routeLength="296.33" waitingTime="0.00" waitingCount="0" stopTime="0.00" timeLoss="6.20" rerouteNo="0" devices="vehroute_flow_9_phase1_E_straight.2 tripinfo_flow_9_phase1_E_straight.2" vType="moto" speedFactor="0.99" vaporized=""/>
    <tripinfo id="flow_13_phase1_W_straight.2" depart="37.00" departLane="W_in_1" departPos="39.28" departSpeed="7.32" departDelay="0.67" arrival="68.00" arrivalLane="E_out_0" arrivalPos="189.60" arrivalSpeed="12.49" duration="31.00" routeLength="360.72" waitingTime="0.00" waitingCount="0" stopTime="0.00" timeLoss="2.08" rerouteNo="0" devices="vehroute_flow_13_phase1_W_straight.2 tripinfo_flow_13_phase1_W_straight.2" vType="moto" speedFactor="0.93" vaporized=""/>
    <tripinfo id="flow_15_phase1_W_right.1" depart="45.00" departLane="W_in_1" departPos="97.23" departSpeed="5.84" departDelay="0.44" arrival="69.00" arrivalLane="S_out_0" arrivalPos="189.60" arrivalSpeed="14.54" duration="24.00" routeLength="291.00" waitingTime="0.00" waitingCount="0" stopTime="0.00" timeLoss="3.71" rerouteNo="0" devices="vehroute_flow_15_phase1_W_right.1 tripinfo_flow_15_phase1_W_right.1" vType="moto" speedFactor="1.08" vaporized=""/>
    <tripinfo id="flow_11_phase1_E_right.1" depart="45.00" departLane="E_in_0" departPos="80.24" departSpeed="9.78" departDelay="0.91" arrival="71.00" arrivalLane="N_out_0" arrivalPos="189.60" arrivalSpeed="14.09" duration="26.00" routeLength="307.99" waitingTime="0.00" waitingCount="0" stopTime="0.00" timeLoss="2.76" rerouteNo="0" devices="vehroute_flow_11_phase1_E_right.1 tripinfo_flow_11_phase1_E_right.1" vType="moto" speedFactor="1.04" vaporized=""/>
    <tripinfo id="flow_2_phase1_N_left.1" depart="45.00" departLane="N_in_0" departPos="15.17" departSpeed="0.73" departDelay="0.65" arrival="77.00" arrivalLane="E_out_1" arrivalPos="189.60" arrivalSpeed="15.24" duration="32.00" routeLength="383.38" waitingTime="0.00" waitingCount="0" stopTime="0.00" timeLoss="6.85" rerouteNo="0" devices="vehroute_flow_2_phase1_N_left.1 tripinfo_flow_2_phase1_N_left.1" vType="moto" speedFactor="1.12" vaporized=""/>
    <tripinfo id="flow_3_phase1_N_right.1" depart="47.00" departLane="N_in_0" departPos="166.00" departSpeed="1.28" departDelay="0.61" arrival="78.00" arrivalLane="W_out_0" arrivalPos="189.60" arrivalSpeed="11.05" duration="31.00" routeLength="222.23" waitingTime="4.00" waitingCount="1" stopTime="0.00" timeLoss="11.05" rerouteNo="0" devices="vehroute_flow_3_phase1_N_right.1 tripinfo_flow_3_phase1_N_right.1" vType="moto" speedFactor="0.88" vaporized=""/>
    <tripinfo id="flow_1_phase1_N_straight.2" depart="37.00" departLane="N_in_1" departPos="64.28" departSpeed="4.21" departDelay="0.31" arrival="80.00" arrivalLane="S_out_0" arrivalPos="189.60" arrivalSpeed="13.35" duration="43.00" routeLength="335.72" waitingTime="4.00" waitingCount="1" stopTime="0.00" timeLoss="17.68" rerouteNo="0" devices="vehroute_flow_1_phase1_N_straight.2 tripinfo_flow_1_phase1_N_straight.2" vType="bus" speedFactor="0.97" vaporized=""/>
    <tripinfo id="flow_1_phase1_N_straight.3" depart="56.00" departLane="N_in_1" departPos="88.42" departSpeed="1.48" departDelay="0.97" arrival="82.00" arrivalLane="S_out_1" arrivalPos="189.60" arrivalSpeed="14.17" duration="26.00" routeLength="311.58" waitingTime="0.00" waitingCount="0" stopTime="0.00" timeLoss="3.71" rerouteNo="0" devices="vehroute_flow_1_phase1_N_straight.3 tripinfo_flow_1_phase1_N_straight.3" vType="car" speedFactor="1.05" vaporized=""/>
    <tripinfo id="flow_5_phase1_S_straight.2" depart="36.00" departLane="S_in_0" departPos="33.93" departSpeed="0.90" departDelay="0.09" arrival="87.00" arrivalLane="S_out_1" arrivalPos="189.60" arrivalSpeed="12.79" duration="51.00" routeLength="349.94" waitingTime="13.00" waitingCount="2" stopTime="0.00" timeLoss="23.61" rerouteNo="0" devices="vehroute_flow_5_phase1_S_straight.2 tripinfo_flow_5_phase1_S_straight.2" vType="moto" speedFactor="0.96" vaporized=""/>
    <tripinfo id="flow_9_phase1_E_straight.3" depart="53.00" departLane="E_in_0" departPos="86.42" departSpeed="8.41" departDelay="0.57" arrival="95.00" arrivalLane="W_out_0" arrivalPos="189.60" arrivalSpeed="11.78" duration="42.00" routeLength="313.58" waitingTime="4.00" waitingCount="1" stopTime="0.00" timeLoss="15.32" rerouteNo="0" devices="vehroute_flow_9_phase1_E_straight.3 tripinfo_flow_9_phase1_E_straight.3" vType="bus" speedFactor="0.85" vaporized=""/>
    <tripinfo id="flow_13_phase1_W_straight.3" depart="55.00" departLane="W_in_0" departPos="65.01" departSpeed="6.58" departDelay="0.51" arrival="95.00" arrivalLane="E_out_1" arrivalPos="189.60" arrivalSpeed="14.75" duration="40.00" routeLength="334.99" waitingTime="3.00" waitingCount="1" stopTime="0.00" timeLoss="18.35" rerouteNo="0" devices="vehroute_flow_13_phase1_W_straight.3 tripinfo_flow_13_phase1_W_straight.3" vType="moto" speedFactor="1.20" vaporized=""/>
    <tripinfo id="flow_7_phase1_S_right.1" depart="45.00" departLane="W_in_0" departPos="54.99" departSpeed="3.84" departDelay="0.90" arrival="99.00" arrivalLane="E_out_0" arrivalPos="189.60" arrivalSpeed="10.57" duration="54.00" routeLength="345.01" waitingTime="5.00" waitingCount="1" stopTime="0.00" timeLoss="21.89" rerouteNo="0" devices="vehroute_flow_7_phase1_S_right.1 tripinfo_flow_7_phase1_S_right.1" vType="container" speedFactor="0.78" vaporized=""/>
    <tripinfo id="flow_10_phase1_E_left.1" depart="46.00" departLane="E_in_0" departPos="4.52" departSpeed="10.41" departDelay="0.54" arrival="106.00" arrivalLane="S_out_1" arrivalPos="189.60" arrivalSpeed="10.03" duration="60.00" routeLength="394.03" waitingTime="9.00" waitingCount="2" stopTime="0.00" timeLoss="22.19" rerouteNo="0" devices="vehroute_flow_10_phase1_E_left.1 tripinfo_flow_10_phase1_E_left.1" vType="truck" speedFactor="0.77" vaporized=""/>
    <tripinfo id="flow_14_phase1_W_left.1" depart="47.00" departLane="W_in_0" departPos="93.41" departSpeed="9.42" departDelay="0.22" arrival="106.00" arrivalLane="N_out_1" arrivalPos="189.60" arrivalSpeed="12.67" duration="59.00" routeLength="305.14" waitingTime="17.00" waitingCount="2" stopTime="0.00" timeLoss="33.98" rerouteNo="0" devices="vehroute_flow_14_phase1_W_left.1 tripinfo_flow_14_phase1_W_left.1" vType="container" speedFactor="0.91" vaporized=""/>
    <tripinfo id="flow_1_phase1_N_straight.4" depart="74.00" departLane="N_in_1" departPos="74.07" departSpeed="0.54" departDelay="0.62" arrival="107.00" arrivalLane="S_out_0" arrivalPos="189.60" arrivalSpeed="12.64" duration="33.00" routeLength="325.93" waitingTime="0.00" waitingCount="0" stopTime="0.00" timeLoss="7.41" rerouteNo="0" devices="vehroute_flow_1_phase1_N_straight.4 tripinfo_flow_1_phase1_N_straight.4" vType="truck" speedFactor="0.92" vaporized=""/>
    <tripinfo id="flow_5_phase1_S_straight.3" depart="54.00" departLane="S_in_0" departPos="184.19" departSpeed="4.95" departDelay="0.14" arrival="108.00" arrivalLane="S_out_1" arrivalPos="189.60" arrivalSpeed="13.78" duration="54.00" routeLength="199.68" waitingTime="33.00" waitingCount="3" stopTime="0.00" timeLoss="39.54" rerouteNo="0" devices="vehroute_flow_5_phase1_S_straight.3 tripinfo_flow_5_phase1_S_straight.3" vType="moto" speedFactor="1.08" vaporized=""/>
    <tripinfo id="flow_6_phase1_S_left.1" depart="46.00" departLane="S_in_1" departPos="79.10" departSpeed="8.50" departDelay="0.60" arrival="109.00" arrivalLane="W_out_1" arrivalPos="189.60" arrivalSpeed="13.37" duration="63.00" routeLength="319.45" waitingTime="31.00" waitingCount="3" stopTime="0.00" timeLoss="40.54" rerouteNo="0" devices="vehroute_flow_6_phase1_S_left.1 tripinfo_flow_6_phase1_S_left.1" vType="moto" speedFactor="1.05" vaporized=""/>
    <tripinfo id="flow_2_phase1_N_left.2" depart="89.00" departLane="N_in_1" departPos="65.33" departSpeed="12.53" departDelay="0.30" arrival="117.00" arrivalLane="E_out_1" arrivalPos="189.60" arrivalSpeed="13.83" duration="28.00" routeLength="333.22" waitingTime="0.00" waitingCount="0" stopTime="0.00" timeLoss="2.15" rerouteNo="0" devices="vehroute_flow_2_phase1_N_left.2 tripinfo_flow_2_phase1_N_left.2" vType="moto" speedFactor="1.00" vaporized=""/>
    <tripinfo id="flow_1_phase1_N_straight.5" depart="92.00" departLane="N_in_0" departPos="92.42" departSpeed="12.50" departDelay="0.28" arrival="118.00" arrivalLane="S_out_0" arrivalPos="189.60" arrivalSpeed="11.40" duration="26.00" routeLength="307.58" waitingTime="0.00" waitingCount="0" stopTime="0.00" timeLoss="1.32" rerouteNo="0" devices="vehroute_flow_1_phase1_N_straight.5 tripinfo_flow_1_phase1_N_straight.5" vType="moto" speedFactor="0.90" vaporized=""/>
    <tripinfo id="flow_3_phase1_N_right.2" depart="93.00" departLane="N_in_0" departPos="87.76" departSpeed="12.03" departDelay="0.22" arrival="118.00" arrivalLane="W_out_0" arrivalPos="189.60" arrivalSpeed="14.89" duration="25.00" routeLength="300.47" waitingTime="0.00" waitingCount="0" stopTime="0.00" timeLoss="4.03" rerouteNo="0" devices="vehroute_flow_3_phase1_N_right.2 tripinfo_flow_3_phase1_N_right.2" vType="moto" speedFactor="1.10" vaporized=""/>
    <tripinfo id="flow_13_phase1_W_straight.5" depart="91.00" departLane="W_in_1" departPos="155.35" departSpeed="12.29" departDelay="0.18" arrival="123.00" arrivalLane="E_out_0" arrivalPos="189.60" arrivalSpeed="14.28" duration="32.00" routeLength="244.65" waitingTime="7.00" waitingCount="1" stopTime="0.00" timeLoss="15.03" rerouteNo="0" devices="vehroute_flow_13_phase1_W_straight.5 tripinfo_flow_13_phase1_W_straight.5" vType="moto" speedFactor="1.04" vaporized=""/>
    <tripinfo id="flow_9_phase1_E_straight.5" depart="88.00" departLane="E_in_1" departPos="160.30" departSpeed="13.98" departDelay="0.62" arrival="124.00" arrivalLane="W_out_0" arrivalPos="189.60" arrivalSpeed="13.77" duration="36.00" routeLength="239.70" waitingTime="10.00" waitingCount="1" stopTime="0.00" timeLoss="18.90" rerouteNo="0" devices="vehroute_flow_9_phase1_E_straight.5 tripinfo_flow_9_phase1_E_straight.5" vType="moto" speedFactor="1.03" vaporized=""/>
    <tripinfo id="flow_7_phase1_S_right.2" depart="89.00" departLane="W_in_1" departPos="111.69" departSpeed="6.85" departDelay="0.80" arrival="124.00" arrivalLane="E_out_1" arrivalPos="189.60" arrivalSpeed="15.52" duration="35.00" routeLength="288.31" waitingTime="7.00" waitingCount="1" stopTime="0.00" timeLoss="16.51" rerouteNo="0" devices="vehroute_flow_7_phase1_S_right.2 tripinfo_flow_7_phase1_S_right.2" vType="moto" speedFactor="1.14" vaporized=""/>
    <tripinfo id="flow_5_phase1_S_straight.4" depart="72.00" departLane="S_in_0" departPos="135.24" departSpeed="1.68" departDelay="0.18" arrival="127.00" arrivalLane="S_out_1" arrivalPos="189.60" arrivalSpeed="13.46" duration="55.00" routeLength="248.63" waitingTime="9.00" waitingCount="2" stopTime="0.00" timeLoss="34.41" rerouteNo="0" devices="vehroute_flow_5_phase1_S_straight.4 tripinfo_flow_5_phase1_S_straight.4" vType="container" speedFactor="0.97" vaporized=""/>
    <tripinfo id="flow_11_phase1_E_right.2" depart="89.00" departLane="E_in_1" departPos="129.09" departSpeed="5.80" departDelay="0.82" arrival="127.00" arrivalLane="N_out_0" arrivalPos="189.60" arrivalSpeed="15.13" duration="38.00" routeLength="259.14" waitingTime="12.00" waitingCount="1" stopTime="0.00" timeLoss="20.03" rerouteNo="0" devices="vehroute_flow_11_phase1_E_right.2 tripinfo_flow_11_phase1_E_right.2" vType="emergency" speedFactor="1.10" vaporized=""/>
    <tripinfo id="flow_15_phase1_W_right.2" depart="90.00" departLane="W_in_1" departPos="65.57" departSpeed="2.39" departDelay="0.87" arrival="128.00" arrivalLane="S_out_0" arrivalPos="189.60" arrivalSpeed="13.33" duration="38.00" routeLength="322.66" waitingTime="2.00" waitingCount="1" stopTime="0.00" timeLoss="14.51" rerouteNo="0" devices="vehroute_flow_15_phase1_W_right.2 tripinfo_flow_15_phase1_W_right.2" vType="moto" speedFactor="1.03" vaporized=""/>
    <tripinfo id="flow_9_phase1_E_straight.4" depart="70.00" departLane="E_in_1" departPos="53.32" departSpeed="10.34" departDelay="0.10" arrival="130.00" arrivalLane="W_out_0" arrivalPos="189.60" arrivalSpeed="13.14" duration="60.00" routeLength="346.68" waitingTime="19.00" waitingCount="1" stopTime="0.00" timeLoss="33.60" rerouteNo="0" devices="vehroute_flow_9_phase1_E_straight.4 tripinfo_flow_9_phase1_E_straight.4" vType="bus" speedFactor="0.95" vaporized=""/>
    <tripinfo id="flow_13_phase1_W_straight.4" depart="73.00" departLane="W_in_0" departPos="70.46" departSpeed="10.65" departDelay="0.34" arrival="130.00" arrivalLane="E_out_0" arrivalPos="189.60" arrivalSpeed="11.61" duration="57.00" routeLength="329.54" waitingTime="19.00" waitingCount="1" stopTime="0.00" timeLoss="29.01" rerouteNo="0" devices="vehroute_flow_13_phase1_W_straight.4 tripinfo_flow_13_phase1_W_straight.4" vType="bus" speedFactor="0.87" vaporized=""/>
    <tripinfo id="flow_9_phase1_E_straight.6" depart="105.00" departLane="E_in_0" departPos="61.32" departSpeed="6.33" departDelay="0.14" arrival="132.00" arrivalLane="W_out_0" arrivalPos="189.60" arrivalSpeed="13.20" duration="27.00" routeLength="338.68" waitingTime="0.00" waitingCount="0" stopTime="0.00" timeLoss="2.92" rerouteNo="0" devices="vehroute_flow_9_phase1_E_straight.6 tripinfo_flow_9_phase1_E_straight.6" vType="moto" speedFactor="1.02" vaporized=""/>
    <tripinfo id="flow_12_phase1_E_uturn.1" depart="90.00" departLane="E_in_0" departPos="91.52" departSpeed="11.56" departDelay="0.68" arrival="134.00" arrivalLane="E_out_1" arrivalPos="189.60" arrivalSpeed="11.92" duration="44.00" routeLength="292.35" waitingTime="12.00" waitingCount="2" stopTime="0.00" timeLoss="20.00" rerouteNo="0" devices="vehroute_flow_12_phase1_E_uturn.1 tripinfo_flow_12_phase1_E_uturn.1" vType="moto" speedFactor="0.94" vaporized=""/>
    <tripinfo id="flow_5_phase1_S_straight.5" depart="90.00" departLane="S_in_0" departPos="155.68" departSpeed="8.48" departDelay="0.23" arrival="138.00" arrivalLane="S_out_1" arrivalPos="189.60" arrivalSpeed="12.43" duration="48.00" routeLength="228.19" waitingTime="17.00" waitingCount="3" stopTime="0.00" timeLoss="29.66" rerouteNo="0" devices="vehroute_flow_5_phase1_S_straight.5 tripinfo_flow_5_phase1_S_straight.5" vType="moto" speedFactor="0.95" vaporized=""/>
    <tripinfo id="flow_16_phase1_W_uturn.1" depart="90.00" departLane="W_in_0" departPos="64.25" departSpeed="5.83" departDelay="0.15" arrival="139.00" arrivalLane="W_out_1" arrivalPos="189.60" arrivalSpeed="12.38" duration="49.00" routeLength="319.62" waitingTime="7.00" waitingCount="2" stopTime="0.00" timeLoss="21.80" rerouteNo="0" devices="vehroute_flow_16_phase1_W_uturn.1 tripinfo_flow_16_phase1_W_uturn.1" vType="truck" speedFactor="0.89" vaporized=""/>
    <tripinfo id="flow_4_phase1_N_uturn.1" depart="90.00" departLane="N_in_1" departPos="19.51" departSpeed="7.49" departDelay="0.37" arrival="140.00" arrivalLane="N_out_1" arrivalPos="189.60" arrivalSpeed="12.90" duration="50.00" routeLength="364.36" waitingTime="12.00" waitingCount="1" stopTime="0.00" timeLoss="20.54" rerouteNo="0" devices="vehroute_flow_4_phase1_N_uturn.1 tripinfo_flow_4_phase1_N_uturn.1" vType="truck" speedFactor="0.94" vaporized=""/>
    <tripinfo id="flow_1_phase1_N_straight.6" depart="111.00" departLane="N_in_1" departPos="21.74" departSpeed="10.75" departDelay="0.94" arrival="141.00" arrivalLane="S_out_0" arrivalPos="189.60" arrivalSpeed="13.43" duration="30.00" routeLength="378.26" waitingTime="0.00" waitingCount="0" stopTime="0.00" timeLoss="1.75" rerouteNo="0" devices="vehroute_flow_1_phase1_N_straight.6 tripinfo_flow_1_phase1_N_straight.6" vType="car" speedFactor="0.98" vaporized=""/>
    <tripinfo id="flow_8_phase1_S_uturn.1" depart="90.00" departLane="S_in_1" departPos="2.77" departSpeed="6.78" departDelay="0.53" arrival="147.00" arrivalLane="S_out_1" arrivalPos="189.60" arrivalSpeed="11.28" duration="57.00" routeLength="381.10" waitingTime="12.00" waitingCount="2" stopTime="0.00" timeLoss="24.10" rerouteNo="0" devices="vehroute_flow_8_phase1_S_uturn.1 tripinfo_flow_8_phase1_S_uturn.1" vType="moto" speedFactor="0.89" vaporized=""/>
    <tripinfo id="flow_13_phase1_W_straight.6" depart="109.00" departLane="W_in_1" departPos="109.89" departSpeed="2.14" departDelay="0.02" arrival="150.00" arrivalLane="E_out_0" arrivalPos="189.60" arrivalSpeed="13.45" duration="41.00" routeLength="290.11" waitingTime="9.00" waitingCount="1" stopTime="0.00" timeLoss="19.59" rerouteNo="0" devices="vehroute_flow_13_phase1_W_straight.6 tripinfo_flow_13_phase1_W_straight.6" vType="car" speedFactor="0.98" vaporized=""/>
    <tripinfo id="flow_9_phase1_E_straight.7" depart="123.00" departLane="E_in_0" departPos="43.18" departSpeed="3.17" departDelay="0.67" arrival="152.00" arrivalLane="W_out_0" arrivalPos="189.60" arrivalSpeed="12.75" duration="29.00" routeLength="356.82" waitingTime="0.00" waitingCount="0" stopTime="0.00" timeLoss="2.86" rerouteNo="0" devices="vehroute_flow_9_phase1_E_straight.7 tripinfo_flow_9_phase1_E_straight.7" vType="moto" speedFactor="1.01" vaporized=""/>
    <tripinfo id="flow_14_phase1_W_left.2" depart="94.00" departLane="W_in_1" departPos="39.34" departSpeed="4.15" departDelay="0.44" arrival="157.00" arrivalLane="N_out_1" arrivalPos="189.60" arrivalSpeed="11.35" duration="63.00" routeLength="359.21" waitingTime="14.00" waitingCount="3" stopTime="0.00" timeLoss="33.38" rerouteNo="0" devices="vehroute_flow_14_phase1_W_left.2 tripinfo_flow_14_phase1_W_left.2" vType="car" speedFactor="0.90" vaporized=""/>
    <tripinfo id="flow_7_phase1_S_right.3" depart="133.00" departLane="W_in_1" departPos="107.80" departSpeed="13.63" departDelay="0.70" arrival="157.00" arrivalLane="E_out_1" arrivalPos="189.60" arrivalSpeed="13.95" duration="24.00" routeLength="292.20" waitingTime="0.00" waitingCount="0" stopTime="0.00" timeLoss="3.48" rerouteNo="0" devices="vehroute_flow_7_phase1_S_right.3 tripinfo_flow_7_phase1_S_right.3" vType="moto" speedFactor="1.07" vaporized=""/>
    <tripinfo id="flow_10_phase1_E_left.2" depart="91.00" departLane="E_in_0" departPos="78.09" departSpeed="14.42" departDelay="0.07" arrival="160.00" arrivalLane="S_out_1" arrivalPos="189.60" arrivalSpeed="15.79" duration="69.00" routeLength="320.46" waitingTime="33.00" waitingCount="4" stopTime="0.00" timeLoss="47.88" rerouteNo="0" devices="vehroute_flow_10_phase1_E_left.2 tripinfo_flow_10_phase1_E_left.2" vType="moto" speedFactor="1.14" vaporized=""/>
    <tripinfo id="flow_13_phase1_W_straight.7" depart="128.00" departLane="W_in_1" departPos="88.32" departSpeed="9.46" departDelay="0.85" arrival="160.00" arrivalLane="E_out_0" arrivalPos="189.60" arrivalSpeed="10.51" duration="32.00" routeLength="311.68" waitingTime="0.00" waitingCount="0" stopTime="0.00" timeLoss="3.92" rerouteNo="0" devices="vehroute_flow_13_phase1_W_straight.7 tripinfo_flow_13_phase1_W_straight.7" vType="moto" speedFactor="0.80" vaporized=""/>
    <tripinfo id="flow_1_phase1_N_straight.7" depart="129.00" departLane="N_in_0" departPos="178.36" departSpeed="3.52" departDelay="0.59" arrival="163.00" arrivalLane="S_out_0" arrivalPos="189.60" arrivalSpeed="14.65" duration="34.00" routeLength="221.64" waitingTime="13.00" waitingCount="1" stopTime="0.00" timeLoss="18.23" rerouteNo="0" devices="vehroute_flow_1_phase1_N_straight.7 tripinfo_flow_1_phase1_N_straight.7" vType="moto" speedFactor="1.06" vaporized=""/>