<?xml version="1.0" encoding="UTF-8"?>

<!-- generated on 2025-12-09 22:47:55 by Eclipse SUMO sumo Version 1.18.0
<configuration xmlns:xsi="http://www.w3.org/2001/XMLSchema-instance" xsi:noNamespaceSchemaLocation="http://sumo.dlr.de/xsd/sumoConfiguration.xsd">

    <input>
        <net-file value="nets/60p2k/net.net.xml"/>
        <route-files value="nets/60p2k/route_temp_566_135378486671152_42584019.rou.xml"/>
    </input>

    <output>
        <summary-output value="result_ddqn_1.4_0.1/summary_ep_6.xml"/>
        <tripinfo-output value="result_ddqn_1.4_0.1/tripinfo_ep_6.xml"/>
        <vehroute-output value="result_ddqn_1.4_0.1/vehroute_ep_6.xml"/>
    </output>

    <time>
        <begin value="0"/>
    </time>

    <report>
        <verbose value="true"/>
        <no-warnings value="true"/>
        <no-step-log value="true"/>
    </report>

    <traci_server>
        <remote-port value="46129"/>
    </traci_server>

    <gui_only>
        <gui-settings-file value="nets/60p2k/gui-settings.xml"/>
        <quit-on-end value="true"/>
    </gui_only>

</configuration>
-->

<tripinfos xmlns:xsi="http://www.w3.org/2001/XMLSchema-instance" xsi:noNamespaceSchemaLocation="http://sumo.dlr.de/xsd/tripinfo_file.xsd">
    <tripinfo id="flow_8_phase1_S_uturn.0" depart="0.00" departLane="S_in_0" departPos="120.11" departSpeed="4.48" departDelay="0.00" arrival="24.00" arrivalLane="S_out_1" arrivalPos="189.60" arrivalSpeed="13.35" duration="24.00" routeLength="263.76" waitingTime="0.00" waitingCount="0" stopTime="0.00" timeLoss="4.90" rerouteNo="0" devices="vehroute_flow_8_phase1_S_uturn.0 tripinfo_flow_8_phase1_S_uturn.0" vType="moto" speedFactor="1.05" vaporized=""/>
    <tripinfo id="flow_5_phase1_S_straight.0" depart="0.00" departLane="S_in_1" departPos="107.37" departSpeed="7.21" departDelay="0.00" arrival="25.00" arrivalLane="N_out_1" arrivalPos="189.60" arrivalSpeed="15.89" duration="25.00" routeLength="292.63" waitingTime="0.00" waitingCount="0" stopTime="0.00" timeLoss="6.23" rerouteNo="0" devices="vehroute_flow_5_phase1_S_straight.0 tripinfo_flow_5_phase1_S_straight.0" vType="moto" speedFactor="1.15" vaporized=""/>
    <tripinfo id="flow_6_phase1_S_left.0" depart="0.00" departLane="S_in_1" departPos="166.01" departSpeed="0.74" departDelay="0.00" arrival="25.00" arrivalLane="W_out_1" arrivalPos="189.60" arrivalSpeed="11.57" duration="25.00" routeLength="232.54" waitingTime="0.00" waitingCount="0" stopTime="0.00" timeLoss="4.36" rerouteNo="0" devices="vehroute_flow_6_phase1_S_left.0 tripinfo_flow_6_phase1_S_left.0" vType="moto" speedFactor="0.88" vaporized=""/>
    <tripinfo id="flow_4_phase1_N_uturn.0" depart="0.00" departLane="N_in_1" departPos="127.60" departSpeed="0.08" departDelay="0.00" arrival="27.00" arrivalLane="W_out_0" arrivalPos="189.60" arrivalSpeed="12.62" duration="27.00" routeLength="260.63" waitingTime="0.00" waitingCount="0" stopTime="0.00" timeLoss="5.38" rerouteNo="0" devices="vehroute_flow_4_phase1_N_uturn.0 tripinfo_flow_4_phase1_N_uturn.0" vType="car" speedFactor="0.92" vaporized=""/>
    <tripinfo id="flow_3_phase1_N_right.0" depart="0.00" departLane="N_in_0" departPos="103.38" departSpeed="3.75" departDelay="0.00" arrival="28.00" arrivalLane="W_out_0" arrivalPos="189.60" arrivalSpeed="14.10" duration="28.00" routeLength="284.85" waitingTime="0.00" waitingCount="0" stopTime="0.00" timeLoss="8.08" rerouteNo="0" devices="vehroute_flow_3_phase1_N_right.0 tripinfo_flow_3_phase1_N_right.0" vType="car" speedFactor="1.09" vaporized=""/>
    <tripinfo id="flow_2_phase1_N_left.0" depart="0.00" departLane="N_in_1" departPos="8.27" departSpeed="8.33" departDelay="0.00" arrival="31.00" arrivalLane="E_out_1" arrivalPos="189.60" arrivalSpeed="13.80" duration="31.00" routeLength="390.28" waitingTime="0.00" waitingCount="0" stopTime="0.00" timeLoss="2.69" rerouteNo="0" devices="vehroute_flow_2_phase1_N_left.0 tripinfo_flow_2_phase1_N_left.0" vType="moto" speedFactor="1.02" vaporized=""/>
    <tripinfo id="flow_13_phase1_W_straight.0" depart="0.00" departLane="N_in_0" departPos="77.99" departSpeed="3.79" departDelay="0.00" arrival="37.00" arrivalLane="W_out_0" arrivalPos="189.60" arrivalSpeed="11.33" duration="37.00" routeLength="310.24" waitingTime="0.00" waitingCount="0" stopTime="0.00" timeLoss="8.07" rerouteNo="0" devices="vehroute_flow_13_phase1_W_straight.0 tripinfo_flow_13_phase1_W_straight.0" vType="container" speedFactor="0.82" vaporized=""/>
    <tripinfo id="flow_15_phase1_W_right.0" depart="0.00" departLane="E_in_1" departPos="45.77" departSpeed="6.73" departDelay="0.00" arrival="39.00" arrivalLane="W_out_1" arrivalPos="189.60" arrivalSpeed="11.00" duration="39.00" routeLength="354.23" waitingTime="2.00" waitingCount="1" stopTime="0.00" timeLoss="8.64" rerouteNo="0" devices="vehroute_flow_15_phase1_W_right.0 tripinfo_flow_15_phase1_W_right.0" vType="moto" speedFactor="0.85" vaporized=""/>
    <tripinfo id="flow_9_phase1_E_straight.0" depart="0.00" departLane="E_in_0" departPos="168.29" departSpeed="9.83" departDelay="0.00" arrival="41.00" arrivalLane="W_out_0" arrivalPos="189.60" arrivalSpeed="11.83" duration="41.00" routeLength="231.71" waitingTime="12.00" waitingCount="1" stopTime="0.00" timeLoss="21.79" rerouteNo="0" devices="vehroute_flow_9_phase1_E_straight.0 tripinfo_flow_9_phase1_E_straight.0" vType="truck" speedFactor="0.90" vaporized=""/>
    <tripinfo id="flow_10_phase1_E_left.0" depart="0.00" departLane="E_in_0" departPos="44.88" departSpeed="7.69" departDelay="0.00" arrival="42.00" arrivalLane="S_out_1" arrivalPos="189.60" arrivalSpeed="13.38" duration="42.00" routeLength="353.67" waitingTime="1.00" waitingCount="1" stopTime="0.00" timeLoss="16.16" rerouteNo="0" devices="vehroute_flow_10_phase1_E_left.0 tripinfo_flow_10_phase1_E_left.0" vType="truck" speedFactor="1.02" vaporized=""/>
    <tripinfo id="flow_11_phase1_E_right.0" depart="0.00" departLane="E_in_1" departPos="144.95" departSpeed="4.02" departDelay="0.00" arrival="42.00" arrivalLane="N_out_0" arrivalPos="189.60" arrivalSpeed="12.61" duration="42.00" routeLength="243.28" waitingTime="10.00" waitingCount="1" stopTime="0.00" timeLoss="22.00" rerouteNo="0" devices="vehroute_flow_11_phase1_E_right.0 tripinfo_flow_11_phase1_E_right.0" vType="bus" speedFactor="0.96" vaporized=""/>
    <tripinfo id="flow_12_phase1_E_uturn.0" depart="0.00" departLane="E_in_0" departPos="5.65" departSpeed="13.76" departDelay="0.00" arrival="43.00" arrivalLane="E_out_1" arrivalPos="189.60" arrivalSpeed="14.27" duration="43.00" routeLength="378.22" waitingTime="0.00" waitingCount="0" stopTime="0.00" timeLoss="15.11" rerouteNo="0" devices="vehroute_flow_12_phase1_E_uturn.0 tripinfo_flow_12_phase1_E_uturn.0" vType="moto" speedFactor="1.03" vaporized=""/>
    <tripinfo id="flow_16_phase1_W_uturn.0" depart="0.00" departLane="W_in_1" departPos="126.68" departSpeed="1.28" departDelay="0.00" arrival="45.00" arrivalLane="W_out_1" arrivalPos="189.60" arrivalSpeed="13.14" duration="45.00" routeLength="257.19" waitingTime="15.00" waitingCount="2" stopTime="0.00" timeLoss="25.65" rerouteNo="0" devices="vehroute_flow_16_phase1_W_uturn.0 tripinfo_flow_16_phase1_W_uturn.0" vType="moto" speedFactor="1.04" vaporized=""/>
    <tripinfo id="flow_1_phase1_N_straight.1" depart="19.00" departLane="N_in_1" departPos="31.93" departSpeed="9.28" departDelay="0.66" arrival="45.00" arrivalLane="S_out_1" arrivalPos="189.60" arrivalSpeed="15.72" duration="26.00" routeLength="368.07" waitingTime="0.00" waitingCount="0" stopTime="0.00" timeLoss="2.56" rerouteNo="0" devices="vehroute_flow_1_phase1_N_straight.1 tripinfo_flow_1_phase1_N_straight.1" vType="moto" speedFactor="1.19" vaporized=""/>
    <tripinfo id="flow_5_phase1_S_straight.1" depart="18.00" departLane="S_in_0" departPos="131.13" departSpeed="9.54" departDelay="0.05" arrival="48.00" arrivalLane="N_out_1" arrivalPos="189.60" arrivalSpeed="15.71" duration="30.00" routeLength="268.87" waitingTime="5.00" waitingCount="1" stopTime="0.00" timeLoss="12.48" rerouteNo="0" devices="vehroute_flow_5_phase1_S_straight.1 tripinfo_flow_5_phase1_S_straight.1" vType="moto" speedFactor="1.16" vaporized=""/>
    <tripinfo id="flow_13_phase1_W_straight.1" depart="19.00" departLane="N_in_1" departPos="121.65" departSpeed="2.86" departDelay="0.84" arrival="53.00" arrivalLane="W_out_0" arrivalPos="189.60" arrivalSpeed="15.34" duration="34.00" routeLength="266.58" waitingTime="3.00" waitingCount="1" stopTime="0.00" timeLoss="16.41" rerouteNo="0" devices="vehroute_flow_13_phase1_W_straight.1 tripinfo_flow_13_phase1_W_straight.1" vType="car" speedFactor="1.12" vaporized=""/>
    <tripinfo id="flow_1_phase1_N_straight.0" depart="0.00" departLane="N_in_0" departPos="8.62" departSpeed="8.51" departDelay="0.00" arrival="56.00" arrivalLane="S_out_0" arrivalPos="189.60" arrivalSpeed="11.59" duration="56.00" routeLength="391.38" waitingTime="11.00" waitingCount="1" stopTime="0.00" timeLoss="22.81" rerouteNo="0" devices="vehroute_flow_1_phase1_N_straight.0 tripinfo_flow_1_phase1_N_straight.0" vType="bus" speedFactor="0.86" vaporized=""/>
    <tripinfo id="flow_7_phase1_S_right.0" depart="0.00" departLane="S_in_0" departPos="8.76" departSpeed="8.07" departDelay="0.00" arrival="57.00" arrivalLane="E_out_0" arrivalPos="189.60" arrivalSpeed="11.37" duration="57.00" routeLength="379.47" waitingTime="12.00" waitingCount="1" stopTime="0.00" timeLoss="23.66" rerouteNo="0" devices="vehroute_flow_7_phase1_S_right.0 tripinfo_flow_7_phase1_S_right.0" vType="container" speedFactor="0.85" vaporized=""/>
    <tripinfo id="flow_9_phase1_E_straight.1" depart="18.00" departLane="E_in_1" departPos="58.36" departSpeed="11.64" departDelay="0.52" arrival="64.00" arrivalLane="W_out_0" arrivalPos="189.60" arrivalSpeed="11.44" duration="46.00" routeLength="341.64" waitingTime="11.00" waitingCount="1" stopTime="0.00" timeLoss="17.41" rerouteNo="0" devices="vehroute_flow_9_phase1_E_straight.1 tripinfo_flow_9_phase1_E_straight.1" vType="moto" speedFactor="0.87" vaporized=""/>
    <tripinfo id="flow_9_phase1_E_straight.2" depart="35.00" departLane="E_in_1" departPos="52.87" departSpeed="0.38" departDelay="0.05" arrival="64.00" arrivalLane="W_out_1" arrivalPos="189.60" arrivalSpeed="13.61" duration="29.00" routeLength="347.13" waitingTime="0.00" waitingCount="0" stopTime="0.00" timeLoss="3.62" rerouteNo="0" devices="vehroute_flow_9_phase1_E_straight.2 tripinfo_flow_9_phase1_E_straight.2" vType="moto" speedFactor="0.99" vaporized=""/>
    <tripinfo id="flow_14_phase1_W_left.0" depart="0.00" departLane="W_in_1" departPos="42.31" departSpeed="3.71" departDelay="0.00" arrival="67.00" arrivalLane="N_out_1" arrivalPos="189.60" arrivalSpeed="12.91" duration="67.00" routeLength="356.24" waitingTime="26.00" waitingCount="4" stopTime="0.00" timeLoss="40.78" rerouteNo="0" devices="vehroute_flow_14_phase1_W_left.0 tripinfo_flow_14_phase1_W_left.0" vType="moto" speedFactor="1.01" vaporized=""/>
    <tripinfo id="flow_15_phase1_W_right.1" depart="45.00" departLane="E_in_0" departPos="73.90" departSpeed="9.22" departDelay="0.44" arrival="68.00" arrivalLane="W_out_1" arrivalPos="189.60" arrivalSpeed="14.34" duration="23.00" routeLength="326.10" waitingTime="0.00" waitingCount="0" stopTime="0.00" timeLoss="1.22" rerouteNo="0" devices="vehroute_flow_15_phase1_W_right.1 tripinfo_flow_15_phase1_W_right.1" vType="moto" speedFactor="1.08" vaporized=""/>
    <tripinfo id="flow_11_phase1_E_right.1" depart="45.00" departLane="E_in_1" departPos="128.68" departSpeed="3.06" departDelay="0.91" arrival="69.00" arrivalLane="N_out_0" arrivalPos="189.60" arrivalSpeed="13.51" duration="24.00" routeLength="259.55" waitingTime="0.00" waitingCount="0" stopTime="0.00" timeLoss="4.17" rerouteNo="0" devices="vehroute_flow_11_phase1_E_right.1 tripinfo_flow_11_phase1_E_right.1" vType="moto" speedFactor="1.04" vaporized=""/>
    <tripinfo id="flow_5_phase1_S_straight.2" depart="36.00" departLane="S_in_1" departPos="12.70" departSpeed="12.41" departDelay="0.09" arrival="75.00" arrivalLane="N_out_0" arrivalPos="189.60" arrivalSpeed="12.64" duration="39.00" routeLength="387.30" waitingTime="3.00" waitingCount="1" stopTime="0.00" timeLoss="10.03" rerouteNo="0" devices="vehroute_flow_5_phase1_S_straight.2 tripinfo_flow_5_phase1_S_straight.2" vType="moto" speedFactor="0.96" vaporized=""/>
    <tripinfo id="flow_13_phase1_W_straight.2" depart="37.00" departLane="N_in_1" departPos="107.53" departSpeed="1.11" departDelay="0.67" arrival="76.00" arrivalLane="W_out_0" arrivalPos="189.60" arrivalSpeed="11.84" duration="39.00" routeLength="280.70" waitingTime="8.00" waitingCount="1" stopTime="0.00" timeLoss="16.04" rerouteNo="0" devices="vehroute_flow_13_phase1_W_straight.2 tripinfo_flow_13_phase1_W_straight.2" vType="moto" speedFactor="0.93" vaporized=""/>
    <tripinfo id="flow_3_phase1_N_right.1" depart="47.00" departLane="N_in_0" departPos="166.00" departSpeed="1.28" departDelay="0.61" arrival="78.00" arrivalLane="W_out_0" arrivalPos="189.60" arrivalSpeed="11.00" duration="31.00" routeLength="222.23" waitingTime="6.00" waitingCount="1" stopTime="0.00" timeLoss="11.78" rerouteNo="0" devices="vehroute_flow_3_phase1_N_right.1 tripinfo_flow_3_phase1_N_right.1" vType="moto" speedFactor="0.88" vaporized=""/>
    <tripinfo id="flow_13_phase1_W_straight.3" depart="55.00" departLane="N_in_0" departPos="132.62" departSpeed="5.49" departDelay="0.51" arrival="79.00" arrivalLane="W_out_0" arrivalPos="189.60" arrivalSpeed="14.20" duration="24.00" routeLength="255.61" waitingTime="0.00" waitingCount="0" stopTime="0.00" timeLoss="7.52" rerouteNo="0" devices="vehroute_flow_13_phase1_W_straight.3 tripinfo_flow_13_phase1_W_straight.3" vType="moto" speedFactor="1.20" vaporized=""/>
    <tripinfo id="flow_1_phase1_N_straight.3" depart="56.00" departLane="N_in_0" departPos="125.48" departSpeed="6.79" departDelay="0.97" arrival="79.00" arrivalLane="S_out_0" arrivalPos="189.60" arrivalSpeed="14.26" duration="23.00" routeLength="274.52" waitingTime="0.00" waitingCount="0" stopTime="0.00" timeLoss="3.88" rerouteNo="0" devices="vehroute_flow_1_phase1_N_straight.3 tripinfo_flow_1_phase1_N_straight.3" vType="car" speedFactor="1.05" vaporized=""/>
    <tripinfo id="flow_1_phase1_N_straight.2" depart="37.00" departLane="N_in_1" departPos="59.51" departSpeed="13.32" departDelay="0.31" arrival="80.00" arrivalLane="S_out_1" arrivalPos="189.60" arrivalSpeed="12.74" duration="43.00" routeLength="340.49" waitingTime="7.00" waitingCount="1" stopTime="0.00" timeLoss="16.71" rerouteNo="0" devices="vehroute_flow_1_phase1_N_straight.2 tripinfo_flow_1_phase1_N_straight.2" vType="bus" speedFactor="0.97" vaporized=""/>
    <tripinfo id="flow_5_phase1_S_straight.3" depart="54.00" departLane="S_in_0" departPos="56.18" departSpeed="8.58" departDelay="0.14" arrival="80.00" arrivalLane="N_out_0" arrivalPos="189.60" arrivalSpeed="14.52" duration="26.00" routeLength="343.82" waitingTime="0.00" waitingCount="0" stopTime="0.00" timeLoss="2.30" rerouteNo="0" devices="vehroute_flow_5_phase1_S_straight.3 tripinfo_flow_5_phase1_S_straight.3" vType="moto" speedFactor="1.08" vaporized=""/>
    <tripinfo id="flow_2_phase1_N_left.1" depart="45.00" departLane="N_in_0" departPos="8.88" departSpeed="2.82" departDelay="0.65" arrival="83.00" arrivalLane="E_out_1" arrivalPos="189.60" arrivalSpeed="14.95" duration="38.00" routeLength="389.67" waitingTime="1.00" waitingCount="1" stopTime="0.00" timeLoss="12.23" rerouteNo="0" devices="vehroute_flow_2_phase1_N_left.1 tripinfo_flow_2_phase1_N_left.1" vType="moto" speedFactor="1.12" vaporized=""/>
    <tripinfo id="flow_7_phase1_S_right.1" depart="45.00" departLane="S_in_1" departPos="66.71" departSpeed="7.87" departDelay="0.90" arrival="83.00" arrivalLane="E_out_0" arrivalPos="189.60" arrivalSpeed="10.68" duration="38.00" routeLength="321.52" waitingTime="0.00" waitingCount="0" stopTime="0.00" timeLoss="6.94" rerouteNo="0" devices="vehroute_flow_7_phase1_S_right.1 tripinfo_flow_7_phase1_S_right.1" vType="container" speedFactor="0.78" vaporized=""/>
    <tripinfo id="flow_6_phase1_S_left.1" depart="46.00" departLane="S_in_1" departPos="110.92" departSpeed="11.99" departDelay="0.60" arrival="83.00" arrivalLane="W_out_1" arrivalPos="189.60" arrivalSpeed="14.00" duration="37.00" routeLength="287.63" waitingTime="7.00" waitingCount="2" stopTime="0.00" timeLoss="15.69" rerouteNo="0" devices="vehroute_flow_6_phase1_S_left.1 tripinfo_flow_6_phase1_S_left.1" vType="moto" speedFactor="1.05" vaporized=""/>
    <tripinfo id="flow_9_phase1_E_straight.3" depart="53.00" departLane="E_in_0" departPos="86.42" departSpeed="8.41" departDelay="0.57" arrival="94.00" arrivalLane="W_out_0" arrivalPos="189.60" arrivalSpeed="11.65" duration="41.00" routeLength="313.58" waitingTime="3.00" waitingCount="1" stopTime="0.00" timeLoss="13.88" rerouteNo="0" devices="vehroute_flow_9_phase1_E_straight.3 tripinfo_flow_9_phase1_E_straight.3" vType="bus" speedFactor="0.85" vaporized=""/>
    <tripinfo id="flow_10_phase1_E_left.1" depart="46.00" departLane="E_in_1" departPos="4.52" departSpeed="3.89" departDelay="0.54" arrival="95.00" arrivalLane="S_out_0" arrivalPos="189.60" arrivalSpeed="10.28" duration="49.00" routeLength="394.03" waitingTime="0.00" waitingCount="0" stopTime="0.00" timeLoss="11.00" rerouteNo="0" devices="vehroute_flow_10_phase1_E_left.1 tripinfo_flow_10_phase1_E_left.1" vType="truck" speedFactor="0.77" vaporized=""/>
    <tripinfo id="flow_9_phase1_E_straight.4" depart="70.00" departLane="E_in_1" departPos="135.04" departSpeed="3.72" departDelay="0.10" arrival="95.00" arrivalLane="W_out_1" arrivalPos="189.60" arrivalSpeed="12.63" duration="25.00" routeLength="264.96" waitingTime="0.00" waitingCount="0" stopTime="0.00" timeLoss="4.25" rerouteNo="0" devices="vehroute_flow_9_phase1_E_straight.4 tripinfo_flow_9_phase1_E_straight.4" vType="bus" speedFactor="0.95" vaporized=""/>
    <tripinfo id="flow_14_phase1_W_left.1" depart="47.00" departLane="W_in_0" departPos="93.41" departSpeed="11.76" departDelay="0.22" arrival="109.00" arrivalLane="N_out_1" arrivalPos="189.60" arrivalSpeed="12.41" duration="62.00" routeLength="305.14" waitingTime="19.00" waitingCount="2" stopTime="0.00" timeLoss="36.40" rerouteNo="0" devices="vehroute_flow_14_phase1_W_left.1 tripinfo_flow_14_phase1_W_left.1" vType="container" speedFactor="0.91" vaporized=""/>
    <tripinfo id="flow_1_phase1_N_straight.5" depart="92.00" departLane="N_in_1" departPos="177.50" departSpeed="6.11" departDelay="0.28" arrival="112.00" arrivalLane="S_out_1" arrivalPos="189.60" arrivalSpeed="12.07" duration="20.00" routeLength="222.50" waitingTime="0.00" waitingCount="0" stopTime="0.00" timeLoss="1.78" rerouteNo="0" devices="vehroute_flow_1_phase1_N_straight.5 tripinfo_flow_1_phase1_N_straight.5" vType="moto" speedFactor="0.90" vaporized=""/>
    <tripinfo id="flow_7_phase1_S_right.2" depart="89.00" departLane="S_in_0" departPos="52.57" departSpeed="9.36" departDelay="0.80" arrival="116.00" arrivalLane="E_out_0" arrivalPos="189.60" arrivalSpeed="15.07" duration="27.00" routeLength="335.66" waitingTime="0.00" waitingCount="0" stopTime="0.00" timeLoss="4.67" rerouteNo="0" devices="vehroute_flow_7_phase1_S_right.2 tripinfo_flow_7_phase1_S_right.2" vType="moto" speedFactor="1.14" vaporized=""/>
    <tripinfo id="flow_5_phase1_S_straight.5" depart="90.00" departLane="S_in_0" departPos="104.14" departSpeed="10.86" departDelay="0.23" arrival="116.00" arrivalLane="N_out_1" arrivalPos="189.60" arrivalSpeed="12.01" duration="26.00" routeLength="295.86" waitingTime="0.00" waitingCount="0" stopTime="0.00" timeLoss="3.18" rerouteNo="0" devices="vehroute_flow_5_phase1_S_straight.5 tripinfo_flow_5_phase1_S_straight.5" vType="moto" speedFactor="0.95" vaporized=""/>
    <tripinfo id="flow_8_phase1_S_uturn.1" depart="90.00" departLane="S_in_1" departPos="168.21" departSpeed="11.63" departDelay="0.53" arrival="116.00" arrivalLane="S_out_1" arrivalPos="189.60" arrivalSpeed="11.20" duration="26.00" routeLength="215.66" waitingTime="2.00" waitingCount="1" stopTime="0.00" timeLoss="7.30" rerouteNo="0" devices="vehroute_flow_8_phase1_S_uturn.1 tripinfo_flow_8_phase1_S_uturn.1" vType="moto" speedFactor="0.89" vaporized=""/>
    <tripinfo id="flow_1_phase1_N_straight.4" depart="74.00" departLane="N_in_0" departPos="128.04" departSpeed="4.99" departDelay="0.62" arrival="117.00" arrivalLane="S_out_0" arrivalPos="189.60" arrivalSpeed="12.40" duration="43.00" routeLength="271.96" waitingTime="7.00" waitingCount="1" stopTime="0.00" timeLoss="20.86" rerouteNo="0" devices="vehroute_flow_1_phase1_N_straight.4 tripinfo_flow_1_phase1_N_straight.4" vType="truck" speedFactor="0.92" vaporized=""/>
    <tripinfo id="flow_6_phase1_S_left.2" depart="91.00" departLane="S_in_1" departPos="92.22" departSpeed="0.17" departDelay="0.20" arrival="118.00" arrivalLane="W_out_1" arrivalPos="189.60" arrivalSpeed="14.51" duration="27.00" routeLength="306.33" waitingTime="0.00" waitingCount="0" stopTime="0.00" timeLoss="5.47" rerouteNo="0" devices="vehroute_flow_6_phase1_S_left.2 tripinfo_flow_6_phase1_S_left.2" vType="moto" speedFactor="1.07" vaporized=""/>
    <tripinfo id="flow_5_phase1_S_straight.4" depart="72.00" departLane="S_in_0" departPos="26.76" departSpeed="9.62" departDelay="0.18" arrival="119.00" arrivalLane="N_out_0" arrivalPos="189.60" arrivalSpeed="13.19" duration="47.00" routeLength="373.24" waitingTime="5.00" waitingCount="1" stopTime="0.00" timeLoss="18.81" rerouteNo="0" devices="vehroute_flow_5_phase1_S_straight.4 tripinfo_flow_5_phase1_S_straight.4" vType="container" speedFactor="0.97" vaporized=""/>
    <tripinfo id="flow_13_phase1_W_straight.4" depart="73.00" departLane="N_in_0" departPos="91.01" departSpeed="4.49" departDelay="0.34" arrival="119.00" arrivalLane="W_out_0" arrivalPos="189.60" arrivalSpeed="11.93" duration="46.00" routeLength="297.22" waitingTime="6.00" waitingCount="1" stopTime="0.00" timeLoss="20.13" rerouteNo="0" devices="vehroute_flow_13_phase1_W_straight.4 tripinfo_flow_13_phase1_W_straight.4" vType="bus" speedFactor="0.87" vaporized=""/>
    <tripinfo id="flow_2_phase1_N_left.2" depart="89.00" departLane="N_in_0" departPos="125.76" departSpeed="4.77" departDelay="0.30" arrival="121.00" arrivalLane="E_out_1" arrivalPos="189.60" arrivalSpeed="12.64" duration="32.00" routeLength="272.79" waitingTime="0.00" waitingCount="0" stopTime="0.00" timeLoss="10.92" rerouteNo="0" devices="vehroute_flow_2_phase1_N_left.2 tripinfo_flow_2_phase1_N_left.2" vType="moto" speedFactor="1.00" vaporized=""/>
    <tripinfo id="flow_11_phase1_E_right.2" depart="89.00" departLane="E_in_1" departPos="112.37" departSpeed="10.40" departDelay="0.82" arrival="121.00" arrivalLane="N_out_0" arrivalPos="189.60" arrivalSpeed="15.07" duration="32.00" routeLength="275.86" waitingTime="9.00" waitingCount="1" stopTime="0.00" timeLoss="13.35" rerouteNo="0" devices="vehroute_flow_11_phase1_E_right.2 tripinfo_flow_11_phase1_E_right.2" vType="emergency" speedFactor="1.10" vaporized=""/>
    <tripinfo id="flow_15_phase1_W_right.2" depart="90.00" departLane="E_in_1" departPos="89.17" departSpeed="11.39" departDelay="0.87" arrival="124.00" arrivalLane="W_out_0" arrivalPos="189.60" arrivalSpeed="13.95" duration="34.00" routeLength="310.83" waitingTime="4.00" waitingCount="1" stopTime="0.00" timeLoss="11.57" rerouteNo="0" devices="vehroute_flow_15_phase1_W_right.2 tripinfo_flow_15_phase1_W_right.2" vType="moto" speedFactor="1.03" vaporized=""/>
    <tripinfo id="flow_9_phase1_E_straight.5" depart="88.00" departLane="E_in_1" departPos="29.12" departSpeed="12.08" departDelay="0.62" arrival="126.00" arrivalLane="W_out_0" arrivalPos="189.60" arrivalSpeed="13.82" duration="38.00" routeLength="370.88" waitingTime="2.00" waitingCount="1" stopTime="0.00" timeLoss="11.42" rerouteNo="0" devices="vehroute_flow_9_phase1_E_straight.5 tripinfo_flow_9_phase1_E_straight.5" vType="moto" speedFactor="1.03" vaporized=""/>
    <tripinfo id="flow_10_phase1_E_left.2" depart="91.00" departLane="E_in_1" departPos="21.68" departSpeed="6.53" departDelay="0.07" arrival="129.00" arrivalLane="S_out_1" arrivalPos="189.60" arrivalSpeed="15.52" duration="38.00" routeLength="376.87" waitingTime="1.00" waitingCount="1" stopTime="0.00" timeLoss="13.41" rerouteNo="0" devices="vehroute_flow_10_phase1_E_left.2 tripinfo_flow_10_phase1_E_left.2" vType="moto" speedFactor="1.14" vaporized=""/>
    <tripinfo id="flow_12_phase1_E_uturn.1" depart="90.00" departLane="E_in_0" departPos="31.76" departSpeed="11.77" departDelay="0.68" arrival="130.00" arrivalLane="E_out_1" arrivalPos="189.60" arrivalSpeed="12.84" duration="40.00" routeLength="352.11" waitingTime="1.00" waitingCount="1" stopTime="0.00" timeLoss="11.41" rerouteNo="0" devices="vehroute_flow_12_phase1_E_uturn.1 tripinfo_flow_12_phase1_E_uturn.1" vType="moto" speedFactor="0.94" vaporized=""/>
    <tripinfo id="flow_9_phase1_E_straight.6" depart="105.00" departLane="E_in_1" departPos="84.30" departSpeed="10.26" departDelay="0.14" arrival="132.00" arrivalLane="W_out_0" arrivalPos="189.60" arrivalSpeed="13.86" duration="27.00" routeLength="315.70" waitingTime="0.00" waitingCount="0" stopTime="0.00" timeLoss="3.85" rerouteNo="0" devices="vehroute_flow_9_phase1_E_straight.6 tripinfo_flow_9_phase1_E_straight.6" vType="moto" speedFactor="1.02" vaporized=""/>
    <tripinfo id="flow_5_phase1_S_straight.6" depart="108.00" departLane="S_in_1" departPos="29.88" departSpeed="12.24" departDelay="0.28" arrival="134.00" arrivalLane="N_out_1" arrivalPos="189.60" arrivalSpeed="14.91" duration="26.00" routeLength="370.12" waitingTime="0.00" waitingCount="0" stopTime="0.00" timeLoss="1.44" rerouteNo="0" devices="vehroute_flow_5_phase1_S_straight.6 tripinfo_flow_5_phase1_S_straight.6" vType="moto" speedFactor="1.10" vaporized=""/>
    <tripinfo id="flow_4_phase1_N_uturn.1" depart="90.00" departLane="N_in_1" departPos="162.40" departSpeed="1.34" departDelay="0.37" arrival="141.00" arrivalLane="W_out_0" arrivalPos="189.60" arrivalSpeed="12.54" duration="51.00" routeLength="225.83" waitingTime="18.00" waitingCount="2" stopTime="0.00" timeLoss="32.69" rerouteNo="0" devices="vehroute_flow_4_phase1_N_uturn.1 tripinfo_flow_4_phase1_N_uturn.1" vType="truck" speedFactor="0.94" vaporized=""/>
    <tripinfo id="flow_16_phase1_W_uturn.1" depart="90.00" departLane="W_in_1" departPos="124.88" departSpeed="0.01" departDelay="0.15" arrival="141.00" arrivalLane="W_out_1" arrivalPos="189.60" arrivalSpeed="11.84" duration="51.00" routeLength="258.99" waitingTime="11.00" waitingCount="2" stopTime="0.00" timeLoss="28.47" rerouteNo="0" devices="vehroute_flow_16_phase1_W_uturn.1 tripinfo_flow_16_phase1_W_uturn.1" vType="truck" speedFactor="0.89" vaporized=""/>
    <tripinfo id="flow_1_phase1_N_straight.6" depart="111.00" departLane="N_in_0" departPos="42.85" departSpeed="1.33" departDelay="0.94" arrival="141.00" arrivalLane="S_out_1" arrivalPos="189.60" arrivalSpeed="12.39" duration="30.00" routeLength="357.15" waitingTime="0.00" waitingCount="0" stopTime="0.00" timeLoss="3.22" rerouteNo="0" devices="vehroute_flow_1_phase1_N_straight.6 tripinfo_flow_1_phase1_N_straight.6" vType="car" speedFactor="0.98" vaporized=""/>
    <tripinfo id="flow_13_phase1_W_straight.5" depart="91.00" departLane="N_in_1" departPos="74.60" departSpeed="11.83" departDelay="0.18" arrival="143.00" arrivalLane="W_out_1" arrivalPos="189.60" arrivalSpeed="13.71" duration="52.00" routeLength="313.63" waitingTime="13.00" waitingCount="1" stopTime="0.00" timeLoss="28.75" rerouteNo="0" devices="vehroute_flow_13_phase1_W_straight.5 tripinfo_flow_13_phase1_W_straight.5" vType="moto" speedFactor="1.04" vaporized=""/>
    <tripinfo id="flow_3_phase1_N_right.2" depart="93.00" departLane="N_in_1" departPos="63.10" departSpeed="7.11" departDelay="0.22" arrival="143.00" arrivalLane="W_out_0" arrivalPos="189.60" arrivalSpeed="14.07" duration="50.00" routeLength="325.13" waitingTime="13.00" waitingCount="1" stopTime="0.00" timeLoss="27.37" rerouteNo="0" devices="vehroute_flow_3_phase1_N_right.2 tripinfo_flow_3_phase1_N_right.2" vType="moto" speedFactor="1.10" vaporized=""/>
    <tripinfo id="flow_13_phase1_W_straight.6" depart="109.00" departLane="N_in_0" departPos="149.69" departSpeed="1.76" departDelay="0.02" arrival="146.00" arrivalLane="W_out_0" arrivalPos="189.60" arrivalSpeed="13.55" duration="37.00" routeLength="238.54" waitingTime="6.00" waitingCount="1" stopTime="0.00" timeLoss="17.54" rerouteNo="0" devices="vehroute_flow_13_phase1_W_straight.6 tripinfo_flow_13_phase1_W_straight.6" vType="car" speedFactor="0.98" vaporized=""/>
    <tripinfo id="flow_9_phase1_E_straight.7" depart="123.00" departLane="E_in_1" departPos="174.35" departSpeed="2.74" departDelay="0.67" arrival="150.00" arrivalLane="W_out_0" arrivalPos="189.60" arrivalSpeed="13.81" duration="27.00" routeLength="225.65" waitingTime="3.00" waitingCount="1" stopTime="0.00" timeLoss="10.60" rerouteNo="0" devices="vehroute_flow_9_phase1_E_straight.7 tripinfo_flow_9_phase1_E_straight.7" vType="moto" speedFactor="1.01" vaporized=""/>
    <tripinfo id="flow_14_phase1_W_left.2" depart="94.00" departLane="W_in_1" departPos="84.66" departSpeed="1.91" departDelay="0.44" arrival="155.00" arrivalLane="N_out_1" arrivalPos="189.60" arrivalSpeed="11.20" duration="61.00" routeLength="313.89" waitingTime="19.00" waitingCount="3" stopTime="0.00" timeLoss="35.02" rerouteNo="0" devices="vehroute_flow_14_phase1_W_left.2 tripinfo_flow_14_phase1_W_left.2" vType="car" speedFactor="0.90" vaporized=""/>
    <tripinfo id="flow_10_phase1_E_left.3" depart="137.00" departLane="E_in_0" departPos="114.62" departSpeed="10.94" departDelay="0.61" arrival="160.00" arrivalLane="S_out_1" arrivalPos="189.60" arrivalSpeed="14.70" duration="23.00" routeLength="283.93" waitingTime="0.00" waitingCount="0" stopTime="0.00" timeLoss="2.65" rerouteNo="0" devices="vehroute_flow_10_phase1_E_left.3 tripinfo_flow_10_phase1_E_left.3" vType="truck" speedFactor="1.07" vaporized=""/>