<?xml version="1.0" encoding="UTF-8"?>

<!-- generated on 2025-12-09 22:47:32 by Eclipse SUMO sumo Version 1.18.0
<configuration xmlns:xsi="http://www.w3.org/2001/XMLSchema-instance" xsi:noNamespaceSchemaLocation="http://sumo.dlr.de/xsd/sumoConfiguration.xsd">

    <input>
        <net-file value="nets/60p2k/net.net.xml"/>
        <route-files value="nets/60p2k/route_temp_566_135378486671152_42584019.rou.xml"/>
    </input>

    <output>
        <summary-output value="result_ddqn_1.4_0.1/summary_ep_5.xml"/>
        <tripinfo-output value="result_ddqn_1.4_0.1/tripinfo_ep_5.xml"/>
        <vehroute-output value="result_ddqn_1.4_0.1/vehroute_ep_5.xml"/>
    </output>

    <time>
        <begin value="0"/>
    </time>

    <report>
        <verbose value="true"/>
        <no-warnings value="true"/>
        <no-step-log value="true"/>
    </report>

    <traci_server>
        <remote-port value="34127"/>
    </traci_server>

    <gui_only>
        <gui-settings-file value="nets/60p2k/gui-settings.xml"/>
        <quit-on-end value="true"/>
    </gui_only>

</configuration>
-->

<tripinfos xmlns:xsi="http://www.w3.org/2001/XMLSchema-instance" xsi:noNamespaceSchemaLocation="http://sumo.dlr.de/xsd/tripinfo_file.xsd">
    <tripinfo id="flow_8_phase1_S_uturn.0" depart="0.00" departLane="S_in_0" departPos="120.11" departSpeed="4.48" departDelay="0.00" arrival="24.00" arrivalLane="S_out_1" arrivalPos="189.60" arrivalSpeed="13.35" duration="24.00" routeLength="263.76" waitingTime="0.00" waitingCount="0" stopTime="0.00" timeLoss="4.90" rerouteNo="0" devices="vehroute_flow_8_phase1_S_uturn.0 tripinfo_flow_8_phase1_S_uturn.0" vType="moto" speedFactor="1.05" vaporized=""/>
    <tripinfo id="flow_5_phase1_S_straight.0" depart="0.00" departLane="S_in_1" departPos="107.37" departSpeed="7.21" departDelay="0.00" arrival="25.00" arrivalLane="N_out_1" arrivalPos="189.60" arrivalSpeed="15.54" duration="25.00" routeLength="292.63" waitingTime="0.00" waitingCount="0" stopTime="0.00" timeLoss="6.40" rerouteNo="0" devices="vehroute_flow_5_phase1_S_straight.0 tripinfo_flow_5_phase1_S_straight.0" vType="moto" speedFactor="1.15" vaporized=""/>
    <tripinfo id="flow_6_phase1_S_left.0" depart="0.00" departLane="S_in_1" departPos="166.01" departSpeed="0.74" departDelay="0.00" arrival="25.00" arrivalLane="W_out_1" arrivalPos="189.60" arrivalSpeed="11.57" duration="25.00" routeLength="232.54" waitingTime="0.00" waitingCount="0" stopTime="0.00" timeLoss="4.36" rerouteNo="0" devices="vehroute_flow_6_phase1_S_left.0 tripinfo_flow_6_phase1_S_left.0" vType="moto" speedFactor="0.88" vaporized=""/>
    <tripinfo id="flow_4_phase1_N_uturn.0" depart="0.00" departLane="N_in_1" departPos="127.60" departSpeed="0.08" departDelay="0.00" arrival="32.00" arrivalLane="N_out_1" arrivalPos="189.60" arrivalSpeed="11.78" duration="32.00" routeLength="256.27" waitingTime="2.00" waitingCount="1" stopTime="0.00" timeLoss="10.48" rerouteNo="0" devices="vehroute_flow_4_phase1_N_uturn.0 tripinfo_flow_4_phase1_N_uturn.0" vType="car" speedFactor="0.92" vaporized=""/>
    <tripinfo id="flow_16_phase1_W_uturn.0" depart="0.00" departLane="W_in_1" departPos="126.68" departSpeed="1.28" departDelay="0.00" arrival="38.00" arrivalLane="W_out_1" arrivalPos="189.60" arrivalSpeed="14.32" duration="38.00" routeLength="257.19" waitingTime="9.00" waitingCount="1" stopTime="0.00" timeLoss="18.46" rerouteNo="0" devices="vehroute_flow_16_phase1_W_uturn.0 tripinfo_flow_16_phase1_W_uturn.0" vType="moto" speedFactor="1.04" vaporized=""/>
    <tripinfo id="flow_15_phase1_W_right.0" depart="0.00" departLane="W_in_0" departPos="45.77" departSpeed="2.63" departDelay="0.00" arrival="39.00" arrivalLane="S_out_0" arrivalPos="189.60" arrivalSpeed="10.97" duration="39.00" routeLength="342.46" waitingTime="0.00" waitingCount="0" stopTime="0.00" timeLoss="8.45" rerouteNo="0" devices="vehroute_flow_15_phase1_W_right.0 tripinfo_flow_15_phase1_W_right.0" vType="moto" speedFactor="0.85" vaporized=""/>
    <tripinfo id="flow_9_phase1_E_straight.0" depart="0.00" departLane="E_in_0" departPos="168.29" departSpeed="9.83" departDelay="0.00" arrival="41.00" arrivalLane="W_out_0" arrivalPos="189.60" arrivalSpeed="12.08" duration="41.00" routeLength="231.71" waitingTime="11.00" waitingCount="1" stopTime="0.00" timeLoss="21.85" rerouteNo="0" devices="vehroute_flow_9_phase1_E_straight.0 tripinfo_flow_9_phase1_E_straight.0" vType="truck" speedFactor="0.90" vaporized=""/>
    <tripinfo id="flow_14_phase1_W_left.0" depart="0.00" departLane="W_in_1" departPos="182.88" departSpeed="5.61" departDelay="0.00" arrival="41.00" arrivalLane="N_out_1" arrivalPos="189.60" arrivalSpeed="13.76" duration="41.00" routeLength="215.67" waitingTime="18.00" waitingCount="2" stopTime="0.00" timeLoss="24.84" rerouteNo="0" devices="vehroute_flow_14_phase1_W_left.0 tripinfo_flow_14_phase1_W_left.0" vType="moto" speedFactor="1.01" vaporized=""/>
    <tripinfo id="flow_11_phase1_E_right.0" depart="0.00" departLane="E_in_1" departPos="144.95" departSpeed="4.02" departDelay="0.00" arrival="42.00" arrivalLane="N_out_0" arrivalPos="189.60" arrivalSpeed="12.61" duration="42.00" routeLength="243.28" waitingTime="10.00" waitingCount="1" stopTime="0.00" timeLoss="22.05" rerouteNo="0" devices="vehroute_flow_11_phase1_E_right.0 tripinfo_flow_11_phase1_E_right.0" vType="bus" speedFactor="0.96" vaporized=""/>
    <tripinfo id="flow_13_phase1_W_straight.0" depart="0.00" departLane="W_in_0" departPos="24.53" departSpeed="3.79" departDelay="0.00" arrival="43.00" arrivalLane="E_out_0" arrivalPos="189.60" arrivalSpeed="11.14" duration="43.00" routeLength="375.47" waitingTime="0.00" waitingCount="0" stopTime="0.00" timeLoss="9.49" rerouteNo="0" devices="vehroute_flow_13_phase1_W_straight.0 tripinfo_flow_13_phase1_W_straight.0" vType="container" speedFactor="0.82" vaporized=""/>
    <tripinfo id="flow_3_phase1_N_right.0" depart="0.00" departLane="W_in_0" departPos="103.38" departSpeed="3.75" departDelay="0.00" arrival="45.00" arrivalLane="N_out_1" arrivalPos="189.60" arrivalSpeed="15.05" duration="45.00" routeLength="295.17" waitingTime="7.00" waitingCount="2" stopTime="0.00" timeLoss="24.57" rerouteNo="0" devices="vehroute_flow_3_phase1_N_right.0 tripinfo_flow_3_phase1_N_right.0" vType="car" speedFactor="1.09" vaporized=""/>
    <tripinfo id="flow_5_phase1_S_straight.1" depart="18.00" departLane="S_in_0" departPos="131.13" departSpeed="9.54" departDelay="0.05" arrival="48.00" arrivalLane="N_out_1" arrivalPos="189.60" arrivalSpeed="15.72" duration="30.00" routeLength="268.87" waitingTime="5.00" waitingCount="1" stopTime="0.00" timeLoss="12.67" rerouteNo="0" devices="vehroute_flow_5_phase1_S_straight.1 tripinfo_flow_5_phase1_S_straight.1" vType="moto" speedFactor="1.16" vaporized=""/>
    <tripinfo id="flow_10_phase1_E_left.0" depart="0.00" departLane="E_in_0" departPos="44.88" departSpeed="7.69" departDelay="0.00" arrival="49.00" arrivalLane="S_out_1" arrivalPos="189.60" arrivalSpeed="13.58" duration="49.00" routeLength="353.67" waitingTime="7.00" waitingCount="2" stopTime="0.00" timeLoss="23.24" rerouteNo="0" devices="vehroute_flow_10_phase1_E_left.0 tripinfo_flow_10_phase1_E_left.0" vType="truck" speedFactor="1.02" vaporized=""/>
    <tripinfo id="flow_1_phase1_N_straight.1" depart="19.00" departLane="N_in_1" departPos="31.93" departSpeed="9.28" departDelay="0.66" arrival="52.00" arrivalLane="S_out_1" arrivalPos="189.60" arrivalSpeed="15.81" duration="33.00" routeLength="368.07" waitingTime="1.00" waitingCount="1" stopTime="0.00" timeLoss="9.99" rerouteNo="0" devices="vehroute_flow_1_phase1_N_straight.1 tripinfo_flow_1_phase1_N_straight.1" vType="moto" speedFactor="1.19" vaporized=""/>
    <tripinfo id="flow_2_phase1_N_left.0" depart="0.00" departLane="N_in_1" departPos="8.27" departSpeed="8.33" departDelay="0.00" arrival="53.00" arrivalLane="E_out_1" arrivalPos="189.60" arrivalSpeed="13.96" duration="53.00" routeLength="390.28" waitingTime="15.00" waitingCount="2" stopTime="0.00" timeLoss="24.01" rerouteNo="0" devices="vehroute_flow_2_phase1_N_left.0 tripinfo_flow_2_phase1_N_left.0" vType="moto" speedFactor="1.02" vaporized=""/>
    <tripinfo id="flow_1_phase1_N_straight.0" depart="0.00" departLane="N_in_0" departPos="8.62" departSpeed="8.51" departDelay="0.00" arrival="55.00" arrivalLane="S_out_0" arrivalPos="189.60" arrivalSpeed="11.31" duration="55.00" routeLength="391.38" waitingTime="12.00" waitingCount="1" stopTime="0.00" timeLoss="21.72" rerouteNo="0" devices="vehroute_flow_1_phase1_N_straight.0 tripinfo_flow_1_phase1_N_straight.0" vType="bus" speedFactor="0.86" vaporized=""/>
    <tripinfo id="flow_7_phase1_S_right.0" depart="0.00" departLane="S_in_0" departPos="8.76" departSpeed="8.07" departDelay="0.00" arrival="57.00" arrivalLane="E_out_0" arrivalPos="189.60" arrivalSpeed="11.28" duration="57.00" routeLength="379.47" waitingTime="12.00" waitingCount="1" stopTime="0.00" timeLoss="23.09" rerouteNo="0" devices="vehroute_flow_7_phase1_S_right.0 tripinfo_flow_7_phase1_S_right.0" vType="container" speedFactor="0.85" vaporized=""/>
    <tripinfo id="flow_13_phase1_W_straight.1" depart="19.00" departLane="W_in_1" departPos="121.65" departSpeed="2.86" departDelay="0.84" arrival="61.00" arrivalLane="E_out_0" arrivalPos="189.60" arrivalSpeed="14.90" duration="42.00" routeLength="278.35" waitingTime="13.00" waitingCount="1" stopTime="0.00" timeLoss="23.61" rerouteNo="0" devices="vehroute_flow_13_phase1_W_straight.1 tripinfo_flow_13_phase1_W_straight.1" vType="car" speedFactor="1.12" vaporized=""/>
    <tripinfo id="flow_13_phase1_W_straight.2" depart="37.00" departLane="W_in_1" departPos="107.53" departSpeed="1.11" departDelay="0.67" arrival="63.00" arrivalLane="E_out_1" arrivalPos="189.60" arrivalSpeed="12.76" duration="26.00" routeLength="292.47" waitingTime="0.00" waitingCount="0" stopTime="0.00" timeLoss="3.33" rerouteNo="0" devices="vehroute_flow_13_phase1_W_straight.2 tripinfo_flow_13_phase1_W_straight.2" vType="moto" speedFactor="0.93" vaporized=""/>
    <tripinfo id="flow_9_phase1_E_straight.1" depart="18.00" departLane="E_in_1" departPos="58.36" departSpeed="11.64" departDelay="0.52" arrival="65.00" arrivalLane="W_out_0" arrivalPos="189.60" arrivalSpeed="11.91" duration="47.00" routeLength="341.64" waitingTime="8.00" waitingCount="1" stopTime="0.00" timeLoss="17.90" rerouteNo="0" devices="vehroute_flow_9_phase1_E_straight.1 tripinfo_flow_9_phase1_E_straight.1" vType="moto" speedFactor="0.87" vaporized=""/>
    <tripinfo id="flow_12_phase1_E_uturn.0" depart="0.00" departLane="E_in_0" departPos="5.65" departSpeed="13.76" departDelay="0.00" arrival="66.00" arrivalLane="E_out_1" arrivalPos="189.60" arrivalSpeed="14.15" duration="66.00" routeLength="378.22" waitingTime="19.00" waitingCount="4" stopTime="0.00" timeLoss="37.89" rerouteNo="0" devices="vehroute_flow_12_phase1_E_uturn.0 tripinfo_flow_12_phase1_E_uturn.0" vType="moto" speedFactor="1.03" vaporized=""/>
    <tripinfo id="flow_9_phase1_E_straight.2" depart="35.00" departLane="E_in_1" departPos="52.87" departSpeed="0.38" departDelay="0.05" arrival="67.00" arrivalLane="W_out_1" arrivalPos="189.60" arrivalSpeed="12.66" duration="32.00" routeLength="347.13" waitingTime="0.00" waitingCount="0" stopTime="0.00" timeLoss="6.45" rerouteNo="0" devices="vehroute_flow_9_phase1_E_straight.2 tripinfo_flow_9_phase1_E_straight.2" vType="moto" speedFactor="0.99" vaporized=""/>
    <tripinfo id="flow_11_phase1_E_right.1" depart="45.00" departLane="E_in_1" departPos="128.68" departSpeed="3.06" departDelay="0.91" arrival="69.00" arrivalLane="N_out_0" arrivalPos="189.60" arrivalSpeed="13.51" duration="24.00" routeLength="259.55" waitingTime="0.00" waitingCount="0" stopTime="0.00" timeLoss="4.77" rerouteNo="0" devices="vehroute_flow_11_phase1_E_right.1 tripinfo_flow_11_phase1_E_right.1" vType="moto" speedFactor="1.04" vaporized=""/>
    <tripinfo id="flow_15_phase1_W_right.1" depart="45.00" departLane="W_in_0" departPos="73.90" departSpeed="9.22" departDelay="0.44" arrival="70.00" arrivalLane="S_out_0" arrivalPos="189.60" arrivalSpeed="14.54" duration="25.00" routeLength="314.33" waitingTime="0.00" waitingCount="0" stopTime="0.00" timeLoss="3.09" rerouteNo="0" devices="vehroute_flow_15_phase1_W_right.1 tripinfo_flow_15_phase1_W_right.1" vType="moto" speedFactor="1.08" vaporized=""/>
    <tripinfo id="flow_3_phase1_N_right.1" depart="47.00" departLane="W_in_0" departPos="166.00" departSpeed="1.28" departDelay="0.61" arrival="72.00" arrivalLane="N_out_1" arrivalPos="189.60" arrivalSpeed="10.99" duration="25.00" routeLength="232.55" waitingTime="0.00" waitingCount="0" stopTime="0.00" timeLoss="4.50" rerouteNo="0" devices="vehroute_flow_3_phase1_N_right.1 tripinfo_flow_3_phase1_N_right.1" vType="moto" speedFactor="0.88" vaporized=""/>
    <tripinfo id="flow_5_phase1_S_straight.2" depart="36.00" departLane="S_in_1" departPos="12.70" departSpeed="12.41" departDelay="0.09" arrival="75.00" arrivalLane="N_out_0" arrivalPos="189.60" arrivalSpeed="12.64" duration="39.00" routeLength="387.30" waitingTime="3.00" waitingCount="1" stopTime="0.00" timeLoss="10.03" rerouteNo="0" devices="vehroute_flow_5_phase1_S_straight.2 tripinfo_flow_5_phase1_S_straight.2" vType="moto" speedFactor="0.96" vaporized=""/>
    <tripinfo id="flow_1_phase1_N_straight.2" depart="37.00" departLane="N_in_1" departPos="59.51" departSpeed="13.32" departDelay="0.31" arrival="80.00" arrivalLane="S_out_0" arrivalPos="189.60" arrivalSpeed="12.76" duration="43.00" routeLength="340.49" waitingTime="6.00" waitingCount="1" stopTime="0.00" timeLoss="17.53" rerouteNo="0" devices="vehroute_flow_1_phase1_N_straight.2 tripinfo_flow_1_phase1_N_straight.2" vType="bus" speedFactor="0.97" vaporized=""/>
    <tripinfo id="flow_5_phase1_S_straight.3" depart="54.00" departLane="S_in_0" departPos="56.18" departSpeed="8.58" departDelay="0.14" arrival="80.00" arrivalLane="N_out_0" arrivalPos="189.60" arrivalSpeed="14.52" duration="26.00" routeLength="343.82" waitingTime="0.00" waitingCount="0" stopTime="0.00" timeLoss="2.34" rerouteNo="0" devices="vehroute_flow_5_phase1_S_straight.3 tripinfo_flow_5_phase1_S_straight.3" vType="moto" speedFactor="1.08" vaporized=""/>
    <tripinfo id="flow_2_phase1_N_left.1" depart="45.00" departLane="N_in_0" departPos="8.88" departSpeed="2.82" departDelay="0.65" arrival="83.00" arrivalLane="E_out_1" arrivalPos="189.60" arrivalSpeed="15.49" duration="38.00" routeLength="389.67" waitingTime="3.00" waitingCount="1" stopTime="0.00" timeLoss="12.23" rerouteNo="0" devices="vehroute_flow_2_phase1_N_left.1 tripinfo_flow_2_phase1_N_left.1" vType="moto" speedFactor="1.12" vaporized=""/>
    <tripinfo id="flow_7_phase1_S_right.1" depart="45.00" departLane="S_in_1" departPos="66.71" departSpeed="7.87" departDelay="0.90" arrival="83.00" arrivalLane="E_out_0" arrivalPos="189.60" arrivalSpeed="10.84" duration="38.00" routeLength="321.52" waitingTime="0.00" waitingCount="0" stopTime="0.00" timeLoss="6.80" rerouteNo="0" devices="vehroute_flow_7_phase1_S_right.1 tripinfo_flow_7_phase1_S_right.1" vType="container" speedFactor="0.78" vaporized=""/>
    <tripinfo id="flow_6_phase1_S_left.1" depart="46.00" departLane="S_in_1" departPos="110.92" departSpeed="11.99" departDelay="0.60" arrival="85.00" arrivalLane="W_out_1" arrivalPos="189.60" arrivalSpeed="13.88" duration="39.00" routeLength="287.63" waitingTime="9.00" waitingCount="2" stopTime="0.00" timeLoss="18.11" rerouteNo="0" devices="vehroute_flow_6_phase1_S_left.1 tripinfo_flow_6_phase1_S_left.1" vType="moto" speedFactor="1.05" vaporized=""/>
    <tripinfo id="flow_13_phase1_W_straight.3" depart="55.00" departLane="W_in_0" departPos="132.62" departSpeed="5.49" departDelay="0.51" arrival="88.00" arrivalLane="E_out_0" arrivalPos="189.60" arrivalSpeed="14.90" duration="33.00" routeLength="267.38" waitingTime="7.00" waitingCount="1" stopTime="0.00" timeLoss="15.62" rerouteNo="0" devices="vehroute_flow_13_phase1_W_straight.3 tripinfo_flow_13_phase1_W_straight.3" vType="moto" speedFactor="1.20" vaporized=""/>
    <tripinfo id="flow_9_phase1_E_straight.3" depart="53.00" departLane="E_in_0" departPos="86.42" departSpeed="8.41" departDelay="0.57" arrival="95.00" arrivalLane="W_out_0" arrivalPos="189.60" arrivalSpeed="11.40" duration="42.00" routeLength="313.58" waitingTime="5.00" waitingCount="1" stopTime="0.00" timeLoss="14.58" rerouteNo="0" devices="vehroute_flow_9_phase1_E_straight.3 tripinfo_flow_9_phase1_E_straight.3" vType="bus" speedFactor="0.85" vaporized=""/>
    <tripinfo id="flow_1_phase1_N_straight.3" depart="56.00" departLane="N_in_0" departPos="125.48" departSpeed="6.79" departDelay="0.97" arrival="95.00" arrivalLane="S_out_0" arrivalPos="189.60" arrivalSpeed="14.50" duration="39.00" routeLength="274.52" waitingTime="7.00" waitingCount="2" stopTime="0.00" timeLoss="19.83" rerouteNo="0" devices="vehroute_flow_1_phase1_N_straight.3 tripinfo_flow_1_phase1_N_straight.3" vType="car" speedFactor="1.05" vaporized=""/>
    <tripinfo id="flow_9_phase1_E_straight.4" depart="70.00" departLane="E_in_1" departPos="135.04" departSpeed="3.72" departDelay="0.10" arrival="98.00" arrivalLane="W_out_1" arrivalPos="189.60" arrivalSpeed="12.88" duration="28.00" routeLength="264.96" waitingTime="0.00" waitingCount="0" stopTime="0.00" timeLoss="7.18" rerouteNo="0" devices="vehroute_flow_9_phase1_E_straight.4 tripinfo_flow_9_phase1_E_straight.4" vType="bus" speedFactor="0.95" vaporized=""/>
    <tripinfo id="flow_10_phase1_E_left.1" depart="46.00" departLane="E_in_1" departPos="4.52" departSpeed="3.89" departDelay="0.54" arrival="100.00" arrivalLane="S_out_0" arrivalPos="189.60" arrivalSpeed="10.43" duration="54.00" routeLength="394.03" waitingTime="1.00" waitingCount="1" stopTime="0.00" timeLoss="15.22" rerouteNo="0" devices="vehroute_flow_10_phase1_E_left.1 tripinfo_flow_10_phase1_E_left.1" vType="truck" speedFactor="0.77" vaporized=""/>
    <tripinfo id="flow_13_phase1_W_straight.4" depart="73.00" departLane="W_in_0" departPos="91.01" departSpeed="4.49" departDelay="0.34" arrival="102.00" arrivalLane="E_out_0" arrivalPos="189.60" arrivalSpeed="11.42" duration="29.00" routeLength="308.99" waitingTime="0.00" waitingCount="0" stopTime="0.00" timeLoss="3.29" rerouteNo="0" devices="vehroute_flow_13_phase1_W_straight.4 tripinfo_flow_13_phase1_W_straight.4" vType="bus" speedFactor="0.87" vaporized=""/>
    <tripinfo id="flow_14_phase1_W_left.1" depart="47.00" departLane="W_in_0" departPos="93.41" departSpeed="7.04" departDelay="0.22" arrival="110.00" arrivalLane="N_out_1" arrivalPos="189.60" arrivalSpeed="12.69" duration="63.00" routeLength="305.14" waitingTime="19.00" waitingCount="2" stopTime="0.00" timeLoss="37.68" rerouteNo="0" devices="vehroute_flow_14_phase1_W_left.1 tripinfo_flow_14_phase1_W_left.1" vType="container" speedFactor="0.91" vaporized=""/>
    <tripinfo id="flow_1_phase1_N_straight.5" depart="92.00" departLane="N_in_1" departPos="177.50" departSpeed="6.11" departDelay="0.28" arrival="112.00" arrivalLane="S_out_1" arrivalPos="189.60" arrivalSpeed="11.48" duration="20.00" routeLength="222.50" waitingTime="0.00" waitingCount="0" stopTime="0.00" timeLoss="1.60" rerouteNo="0" devices="vehroute_flow_1_phase1_N_straight.5 tripinfo_flow_1_phase1_N_straight.5" vType="moto" speedFactor="0.90" vaporized=""/>
    <tripinfo id="flow_1_phase1_N_straight.4" depart="74.00" departLane="N_in_0" departPos="128.04" departSpeed="4.99" departDelay="0.62" arrival="116.00" arrivalLane="S_out_0" arrivalPos="189.60" arrivalSpeed="12.15" duration="42.00" routeLength="271.96" waitingTime="8.00" waitingCount="1" stopTime="0.00" timeLoss="20.46" rerouteNo="0" devices="vehroute_flow_1_phase1_N_straight.4 tripinfo_flow_1_phase1_N_straight.4" vType="truck" speedFactor="0.92" vaporized=""/>
    <tripinfo id="flow_7_phase1_S_right.2" depart="89.00" departLane="S_in_0" departPos="52.57" departSpeed="9.36" departDelay="0.80" arrival="116.00" arrivalLane="E_out_0" arrivalPos="189.60" arrivalSpeed="14.89" duration="27.00" routeLength="335.66" waitingTime="0.00" waitingCount="0" stopTime="0.00" timeLoss="4.81" rerouteNo="0" devices="vehroute_flow_7_phase1_S_right.2 tripinfo_flow_7_phase1_S_right.2" vType="moto" speedFactor="1.14" vaporized=""/>
    <tripinfo id="flow_5_phase1_S_straight.5" depart="90.00" departLane="S_in_0" departPos="104.14" departSpeed="10.86" departDelay="0.23" arrival="116.00" arrivalLane="N_out_1" arrivalPos="189.60" arrivalSpeed="13.16" duration="26.00" routeLength="295.86" waitingTime="0.00" waitingCount="0" stopTime="0.00" timeLoss="3.37" rerouteNo="0" devices="vehroute_flow_5_phase1_S_straight.5 tripinfo_flow_5_phase1_S_straight.5" vType="moto" speedFactor="0.95" vaporized=""/>
    <tripinfo id="flow_8_phase1_S_uturn.1" depart="90.00" departLane="S_in_1" departPos="168.21" departSpeed="11.63" departDelay="0.53" arrival="116.00" arrivalLane="S_out_1" arrivalPos="189.60" arrivalSpeed="11.46" duration="26.00" routeLength="215.66" waitingTime="2.00" waitingCount="1" stopTime="0.00" timeLoss="7.15" rerouteNo="0" devices="vehroute_flow_8_phase1_S_uturn.1 tripinfo_flow_8_phase1_S_uturn.1" vType="moto" speedFactor="0.89" vaporized=""/>
    <tripinfo id="flow_6_phase1_S_left.2" depart="91.00" departLane="S_in_1" departPos="92.22" departSpeed="0.17" departDelay="0.20" arrival="118.00" arrivalLane="W_out_1" arrivalPos="189.60" arrivalSpeed="14.38" duration="27.00" routeLength="306.33" waitingTime="0.00" waitingCount="0" stopTime="0.00" timeLoss="5.48" rerouteNo="0" devices="vehroute_flow_6_phase1_S_left.2 tripinfo_flow_6_phase1_S_left.2" vType="moto" speedFactor="1.07" vaporized=""/>
    <tripinfo id="flow_5_phase1_S_straight.4" depart="72.00" departLane="S_in_0" departPos="26.76" departSpeed="9.62" departDelay="0.18" arrival="119.00" arrivalLane="N_out_0" arrivalPos="189.60" arrivalSpeed="13.19" duration="47.00" routeLength="373.24" waitingTime="5.00" waitingCount="1" stopTime="0.00" timeLoss="18.81" rerouteNo="0" devices="vehroute_flow_5_phase1_S_straight.4 tripinfo_flow_5_phase1_S_straight.4" vType="container" speedFactor="0.97" vaporized=""/>
    <tripinfo id="flow_11_phase1_E_right.2" depart="89.00" departLane="E_in_1" departPos="112.37" departSpeed="10.40" departDelay="0.82" arrival="122.00" arrivalLane="N_out_0" arrivalPos="189.60" arrivalSpeed="14.43" duration="33.00" routeLength="275.86" waitingTime="8.00" waitingCount="1" stopTime="0.00" timeLoss="13.51" rerouteNo="0" devices="vehroute_flow_11_phase1_E_right.2 tripinfo_flow_11_phase1_E_right.2" vType="emergency" speedFactor="1.10" vaporized=""/>
    <tripinfo id="flow_4_phase1_N_uturn.1" depart="90.00" departLane="N_in_1" departPos="162.40" departSpeed="1.34" departDelay="0.37" arrival="123.00" arrivalLane="N_out_1" arrivalPos="189.60" arrivalSpeed="12.99" duration="33.00" routeLength="221.47" waitingTime="2.00" waitingCount="1" stopTime="0.00" timeLoss="14.78" rerouteNo="0" devices="vehroute_flow_4_phase1_N_uturn.1 tripinfo_flow_4_phase1_N_uturn.1" vType="truck" speedFactor="0.94" vaporized=""/>
    <tripinfo id="flow_15_phase1_W_right.2" depart="90.00" departLane="W_in_1" departPos="89.17" departSpeed="11.39" departDelay="0.87" arrival="123.00" arrivalLane="S_out_0" arrivalPos="189.60" arrivalSpeed="13.08" duration="33.00" routeLength="299.06" waitingTime="5.00" waitingCount="1" stopTime="0.00" timeLoss="11.25" rerouteNo="0" devices="vehroute_flow_15_phase1_W_right.2 tripinfo_flow_15_phase1_W_right.2" vType="moto" speedFactor="1.03" vaporized=""/>
    <tripinfo id="flow_9_phase1_E_straight.5" depart="88.00" departLane="E_in_1" departPos="29.12" departSpeed="12.08" departDelay="0.62" arrival="124.00" arrivalLane="W_out_1" arrivalPos="189.60" arrivalSpeed="13.34" duration="36.00" routeLength="370.88" waitingTime="3.00" waitingCount="1" stopTime="0.00" timeLoss="9.57" rerouteNo="0" devices="vehroute_flow_9_phase1_E_straight.5 tripinfo_flow_9_phase1_E_straight.5" vType="moto" speedFactor="1.03" vaporized=""/>
    <tripinfo id="flow_13_phase1_W_straight.5" depart="91.00" departLane="W_in_1" departPos="74.60" departSpeed="11.83" departDelay="0.18" arrival="126.00" arrivalLane="E_out_0" arrivalPos="189.60" arrivalSpeed="13.17" duration="35.00" routeLength="325.40" waitingTime="0.00" waitingCount="0" stopTime="0.00" timeLoss="11.57" rerouteNo="0" devices="vehroute_flow_13_phase1_W_straight.5 tripinfo_flow_13_phase1_W_straight.5" vType="moto" speedFactor="1.04" vaporized=""/>
    <tripinfo id="flow_12_phase1_E_uturn.1" depart="90.00" departLane="E_in_0" departPos="31.76" departSpeed="11.77" departDelay="0.68" arrival="127.00" arrivalLane="E_out_1" arrivalPos="189.60" arrivalSpeed="12.65" duration="37.00" routeLength="352.11" waitingTime="1.00" waitingCount="1" stopTime="0.00" timeLoss="8.32" rerouteNo="0" devices="vehroute_flow_12_phase1_E_uturn.1 tripinfo_flow_12_phase1_E_uturn.1" vType="moto" speedFactor="0.94" vaporized=""/>
    <tripinfo id="flow_10_phase1_E_left.2" depart="91.00" departLane="E_in_1" departPos="21.68" departSpeed="6.53" departDelay="0.07" arrival="127.00" arrivalLane="S_out_1" arrivalPos="189.60" arrivalSpeed="14.72" duration="36.00" routeLength="376.87" waitingTime="0.00" waitingCount="0" stopTime="0.00" timeLoss="11.15" rerouteNo="0" devices="vehroute_flow_10_phase1_E_left.2 tripinfo_flow_10_phase1_E_left.2" vType="moto" speedFactor="1.14" vaporized=""/>
    <tripinfo id="flow_9_phase1_E_straight.6" depart="105.00" departLane="E_in_1" departPos="137.11" departSpeed="4.59" departDelay="0.14" arrival="129.00" arrivalLane="W_out_0" arrivalPos="189.60" arrivalSpeed="13.83" duration="24.00" routeLength="262.89" waitingTime="0.00" waitingCount="0" stopTime="0.00" timeLoss="5.17" rerouteNo="0" devices="vehroute_flow_9_phase1_E_straight.6 tripinfo_flow_9_phase1_E_straight.6" vType="moto" speedFactor="1.02" vaporized=""/>
    <tripinfo id="flow_3_phase1_N_right.2" depart="93.00" departLane="W_in_1" departPos="159.96" departSpeed="7.11" departDelay="0.22" arrival="133.00" arrivalLane="N_out_1" arrivalPos="189.60" arrivalSpeed="15.09" duration="40.00" routeLength="238.59" waitingTime="15.00" waitingCount="2" stopTime="0.00" timeLoss="23.09" rerouteNo="0" devices="vehroute_flow_3_phase1_N_right.2 tripinfo_flow_3_phase1_N_right.2" vType="moto" speedFactor="1.10" vaporized=""/>
    <tripinfo id="flow_5_phase1_S_straight.6" depart="108.00" departLane="S_in_1" departPos="152.01" departSpeed="5.60" departDelay="0.28" arrival="136.00" arrivalLane="N_out_0" arrivalPos="189.60" arrivalSpeed="14.94" duration="28.00" routeLength="247.99" waitingTime="4.00" waitingCount="1" stopTime="0.00" timeLoss="11.65" rerouteNo="0" devices="vehroute_flow_5_phase1_S_straight.6 tripinfo_flow_5_phase1_S_straight.6" vType="moto" speedFactor="1.10" vaporized=""/>
    <tripinfo id="flow_2_phase1_N_left.2" depart="89.00" departLane="N_in_0" departPos="125.76" departSpeed="4.77" departDelay="0.30" arrival="141.00" arrivalLane="E_out_1" arrivalPos="189.60" arrivalSpeed="12.89" duration="52.00" routeLength="272.79" waitingTime="13.00" waitingCount="3" stopTime="0.00" timeLoss="31.39" rerouteNo="0" devices="vehroute_flow_2_phase1_N_left.2 tripinfo_flow_2_phase1_N_left.2" vType="moto" speedFactor="1.00" vaporized=""/>
    <tripinfo id="flow_1_phase1_N_straight.6" depart="111.00" departLane="N_in_0" departPos="18.52" departSpeed="1.56" departDelay="0.94" arrival="143.00" arrivalLane="S_out_0" arrivalPos="189.60" arrivalSpeed="12.77" duration="32.00" routeLength="381.48" waitingTime="0.00" waitingCount="0" stopTime="0.00" timeLoss="3.49" rerouteNo="0" devices="vehroute_flow_1_phase1_N_straight.6 tripinfo_flow_1_phase1_N_straight.6" vType="car" speedFactor="0.98" vaporized=""/>
    <tripinfo id="flow_13_phase1_W_straight.6" depart="109.00" departLane="W_in_0" departPos="24.55" departSpeed="7.86" departDelay="0.02" arrival="151.00" arrivalLane="E_out_0" arrivalPos="189.60" arrivalSpeed="12.80" duration="42.00" routeLength="375.45" waitingTime="5.00" waitingCount="1" stopTime="0.00" timeLoss="13.44" rerouteNo="0" devices="vehroute_flow_13_phase1_W_straight.6 tripinfo_flow_13_phase1_W_straight.6" vType="car" speedFactor="0.98" vaporized=""/>
    <tripinfo id="flow_9_phase1_E_straight.7" depart="123.00" departLane="E_in_1" departPos="37.04" departSpeed="3.19" departDelay="0.67" arrival="152.00" arrivalLane="W_out_0" arrivalPos="189.60" arrivalSpeed="13.79" duration="29.00" routeLength="362.96" waitingTime="0.00" waitingCount="0" stopTime="0.00" timeLoss="3.07" rerouteNo="0" devices="vehroute_flow_9_phase1_E_straight.7 tripinfo_flow_9_phase1_E_straight.7" vType="moto" speedFactor="1.01" vaporized=""/>
    <tripinfo id="flow_15_phase1_W_right.3" depart="134.00" departLane="W_in_1" departPos="86.40" departSpeed="1.91" departDelay="0.31" arrival="160.00" arrivalLane="S_out_0" arrivalPos="189.60" arrivalSpeed="15.73" duration="26.00" routeLength="301.83" waitingTime="0.00" waitingCount="0" stopTime="0.00" timeLoss="6.46" rerouteNo="0" devices="vehroute_flow_15_phase1_W_right.3 tripinfo_flow_15_phase1_W_right.3" vType="moto" speedFactor="1.17" vaporized=""/>
    <tripinfo id="flow_16_phase1_W_uturn.1" depart="90.00" departLane="W_in_1" departPos="124.88" departSpeed="0.01" departDelay="0.15" arrival="161.00" arrivalLane="W_out_0" arrivalPos="189.60" arrivalSpeed="11.62" duration="71.00" routeLength="258.99" waitingTime="26.00" waitingCount="3" stopTime="0.00" timeLoss="48.24" rerouteNo="0" devices="vehroute_flow_16_phase1_W_uturn.1 tripinfo_flow_16_phase1_W_uturn.1" vType="truck" speedFactor="0.89" vaporized=""/>
    <tripinfo id="flow_14_phase1_W_left.2" depart="94.00" departLane="W_in_1" departPos="29.07" departSpeed="2.59" departDelay="0.44" arrival="162.00" arrivalLane="N_out_1" arrivalPos="189.60" arrivalSpeed="11.42" duration="68.00" routeLength="369.48" waitingTime="21.00" waitingCount="2" stopTime="0.00" timeLoss="37.35" rerouteNo="0" devices="vehroute_flow_14_phase1_W_left.2 tripinfo_flow_14_phase1_W_left.2" vType="car" speedFactor="0.90" vaporized=""/>