<?xml version="1.0" encoding="UTF-8"?>

<!-- generated on 2025-12-09 22:48:20 by Eclipse SUMO sumo Version 1.18.0
<configuration xmlns:xsi="http://www.w3.org/2001/XMLSchema-instance" xsi:noNamespaceSchemaLocation="http://sumo.dlr.de/xsd/sumoConfiguration.xsd">

    <input>
        <net-file value="nets/60p2k/net.net.xml"/>
        <route-files value="nets/60p2k/route_temp_566_135378486671152_42584019.rou.xml"/>
    </input>

    <output>
        <summary-output value="result_ddqn_1.4_0.1/summary_ep_7.xml"/>
        <tripinfo-output value="result_ddqn_1.4_0.1/tripinfo_ep_7.xml"/>
        <vehroute-output value="result_ddqn_1.4_0.1/vehroute_ep_7.xml"/>
    </output>

    <time>
        <begin value="0"/>
    </time>

    <report>
        <verbose value="true"/>
        <no-warnings value="true"/>
        <no-step-log value="true"/>
    </report>

    <traci_server>
        <remote-port value="35583"/>
    </traci_server>

    <gui_only>
        <gui-settings-file value="nets/60p2k/gui-settings.xml"/>
        <quit-on-end value="true"/>
    </gui_only>

</configuration>
-->

<tripinfos xmlns:xsi="http://www.w3.org/2001/XMLSchema-instance" xsi:noNamespaceSchemaLocation="http://sumo.dlr.de/xsd/tripinfo_file.xsd">
    <tripinfo id="flow_14_phase1_W_left.0" depart="0.00" departLane="S_in_1" departPos="182.88" departSpeed="5.61" departDelay="0.00" arrival="19.00" arrivalLane="E_out_0" arrivalPos="189.60" arrivalSpeed="13.54" duration="19.00" routeLength="205.35" waitingTime="0.00" waitingCount="0" stopTime="0.00" timeLoss="2.95" rerouteNo="0" devices="vehroute_flow_14_phase1_W_left.0 tripinfo_flow_14_phase1_W_left.0" vType="moto" speedFactor="1.01" vaporized=""/>
    <tripinfo id="flow_3_phase1_N_right.0" depart="0.00" departLane="N_in_0" departPos="103.38" departSpeed="3.75" departDelay="0.00" arrival="24.00" arrivalLane="W_out_0" arrivalPos="189.60" arrivalSpeed="14.93" duration="24.00" routeLength="284.85" waitingTime="0.00" waitingCount="0" stopTime="0.00" timeLoss="4.55" rerouteNo="0" devices="vehroute_flow_3_phase1_N_right.0 tripinfo_flow_3_phase1_N_right.0" vType="car" speedFactor="1.09" vaporized=""/>
    <tripinfo id="flow_6_phase1_S_left.0" depart="0.00" departLane="S_in_1" departPos="166.01" departSpeed="0.74" departDelay="0.00" arrival="25.00" arrivalLane="W_out_1" arrivalPos="189.60" arrivalSpeed="11.97" duration="25.00" routeLength="232.54" waitingTime="0.00" waitingCount="0" stopTime="0.00" timeLoss="4.37" rerouteNo="0" devices="vehroute_flow_6_phase1_S_left.0 tripinfo_flow_6_phase1_S_left.0" vType="moto" speedFactor="0.88" vaporized=""/>
    <tripinfo id="flow_8_phase1_S_uturn.0" depart="0.00" departLane="S_in_0" departPos="120.11" departSpeed="4.48" departDelay="0.00" arrival="25.00" arrivalLane="S_out_1" arrivalPos="189.60" arrivalSpeed="13.41" duration="25.00" routeLength="263.76" waitingTime="0.00" waitingCount="0" stopTime="0.00" timeLoss="6.01" rerouteNo="0" devices="vehroute_flow_8_phase1_S_uturn.0 tripinfo_flow_8_phase1_S_uturn.0" vType="moto" speedFactor="1.05" vaporized=""/>
    <tripinfo id="flow_11_phase1_E_right.0" depart="0.00" departLane="S_in_1" departPos="144.95" departSpeed="4.02" departDelay="0.00" arrival="25.00" arrivalLane="E_out_0" arrivalPos="189.60" arrivalSpeed="12.65" duration="25.00" routeLength="243.28" waitingTime="0.00" waitingCount="0" stopTime="0.00" timeLoss="5.57" rerouteNo="0" devices="vehroute_flow_11_phase1_E_right.0 tripinfo_flow_11_phase1_E_right.0" vType="bus" speedFactor="0.96" vaporized=""/>
    <tripinfo id="flow_5_phase1_S_straight.0" depart="0.00" departLane="S_in_1" departPos="107.37" departSpeed="7.21" departDelay="0.00" arrival="26.00" arrivalLane="N_out_1" arrivalPos="189.60" arrivalSpeed="15.92" duration="26.00" routeLength="292.63" waitingTime="0.00" waitingCount="0" stopTime="0.00" timeLoss="7.41" rerouteNo="0" devices="vehroute_flow_5_phase1_S_straight.0 tripinfo_flow_5_phase1_S_straight.0" vType="moto" speedFactor="1.15" vaporized=""/>
    <tripinfo id="flow_4_phase1_N_uturn.0" depart="0.00" departLane="N_in_1" departPos="127.60" departSpeed="0.08" departDelay="0.00" arrival="33.00" arrivalLane="N_out_1" arrivalPos="189.60" arrivalSpeed="12.83" duration="33.00" routeLength="256.27" waitingTime="3.00" waitingCount="1" stopTime="0.00" timeLoss="11.65" rerouteNo="0" devices="vehroute_flow_4_phase1_N_uturn.0 tripinfo_flow_4_phase1_N_uturn.0" vType="car" speedFactor="0.92" vaporized=""/>
    <tripinfo id="flow_2_phase1_N_left.0" depart="0.00" departLane="W_in_1" departPos="8.27" departSpeed="8.33" departDelay="0.00" arrival="37.00" arrivalLane="S_out_1" arrivalPos="189.60" arrivalSpeed="13.93" duration="37.00" routeLength="379.96" waitingTime="3.00" waitingCount="1" stopTime="0.00" timeLoss="9.40" rerouteNo="0" devices="vehroute_flow_2_phase1_N_left.0 tripinfo_flow_2_phase1_N_left.0" vType="moto" speedFactor="1.02" vaporized=""/>
    <tripinfo id="flow_15_phase1_W_right.0" depart="0.00" departLane="W_in_0" departPos="108.38" departSpeed="2.63" departDelay="0.00" arrival="39.00" arrivalLane="S_out_0" arrivalPos="189.60" arrivalSpeed="10.97" duration="39.00" routeLength="279.85" waitingTime="6.00" waitingCount="1" stopTime="0.00" timeLoss="13.93" rerouteNo="0" devices="vehroute_flow_15_phase1_W_right.0 tripinfo_flow_15_phase1_W_right.0" vType="moto" speedFactor="0.85" vaporized=""/>
    <tripinfo id="flow_10_phase1_E_left.0" depart="0.00" departLane="E_in_0" departPos="44.88" departSpeed="7.69" departDelay="0.00" arrival="40.00" arrivalLane="S_out_1" arrivalPos="189.60" arrivalSpeed="13.63" duration="40.00" routeLength="353.67" waitingTime="2.00" waitingCount="1" stopTime="0.00" timeLoss="14.23" rerouteNo="0" devices="vehroute_flow_10_phase1_E_left.0 tripinfo_flow_10_phase1_E_left.0" vType="truck" speedFactor="1.02" vaporized=""/>
    <tripinfo id="flow_12_phase1_E_uturn.0" depart="0.00" departLane="E_in_0" departPos="5.65" departSpeed="13.76" departDelay="0.00" arrival="40.00" arrivalLane="E_out_1" arrivalPos="189.60" arrivalSpeed="14.20" duration="40.00" routeLength="378.22" waitingTime="2.00" waitingCount="1" stopTime="0.00" timeLoss="12.39" rerouteNo="0" devices="vehroute_flow_12_phase1_E_uturn.0 tripinfo_flow_12_phase1_E_uturn.0" vType="moto" speedFactor="1.03" vaporized=""/>
    <tripinfo id="flow_9_phase1_E_straight.0" depart="0.00" departLane="E_in_0" departPos="168.29" departSpeed="9.83" departDelay="0.00" arrival="41.00" arrivalLane="W_out_0" arrivalPos="189.60" arrivalSpeed="12.31" duration="41.00" routeLength="231.71" waitingTime="12.00" waitingCount="1" stopTime="0.00" timeLoss="22.18" rerouteNo="0" devices="vehroute_flow_9_phase1_E_straight.0 tripinfo_flow_9_phase1_E_straight.0" vType="truck" speedFactor="0.90" vaporized=""/>
    <tripinfo id="flow_16_phase1_W_uturn.0" depart="0.00" departLane="W_in_0" departPos="126.68" departSpeed="11.71" departDelay="0.00" arrival="45.00" arrivalLane="W_out_1" arrivalPos="189.60" arrivalSpeed="14.32" duration="45.00" routeLength="257.19" waitingTime="19.00" waitingCount="2" stopTime="0.00" timeLoss="25.59" rerouteNo="0" devices="vehroute_flow_16_phase1_W_uturn.0 tripinfo_flow_16_phase1_W_uturn.0" vType="moto" speedFactor="1.04" vaporized=""/>
    <tripinfo id="flow_1_phase1_N_straight.1" depart="19.00" departLane="N_in_1" departPos="31.93" departSpeed="9.28" departDelay="0.66" arrival="45.00" arrivalLane="S_out_1" arrivalPos="189.60" arrivalSpeed="14.97" duration="26.00" routeLength="368.07" waitingTime="0.00" waitingCount="0" stopTime="0.00" timeLoss="2.70" rerouteNo="0" devices="vehroute_flow_1_phase1_N_straight.1 tripinfo_flow_1_phase1_N_straight.1" vType="moto" speedFactor="1.19" vaporized=""/>
    <tripinfo id="flow_5_phase1_S_straight.1" depart="18.00" departLane="S_in_0" departPos="131.13" departSpeed="9.54" departDelay="0.05" arrival="48.00" arrivalLane="N_out_1" arrivalPos="189.60" arrivalSpeed="15.80" duration="30.00" routeLength="268.87" waitingTime="5.00" waitingCount="1" stopTime="0.00" timeLoss="12.57" rerouteNo="0" devices="vehroute_flow_5_phase1_S_straight.1 tripinfo_flow_5_phase1_S_straight.1" vType="moto" speedFactor="1.16" vaporized=""/>
    <tripinfo id="flow_1_phase1_N_straight.0" depart="0.00" departLane="N_in_0" departPos="8.62" departSpeed="8.51" departDelay="0.00" arrival="56.00" arrivalLane="S_out_0" arrivalPos="189.60" arrivalSpeed="11.53" duration="56.00" routeLength="391.38" waitingTime="11.00" waitingCount="1" stopTime="0.00" timeLoss="22.33" rerouteNo="0" devices="vehroute_flow_1_phase1_N_straight.0 tripinfo_flow_1_phase1_N_straight.0" vType="bus" speedFactor="0.86" vaporized=""/>
    <tripinfo id="flow_7_phase1_S_right.0" depart="0.00" departLane="S_in_0" departPos="8.76" departSpeed="8.07" departDelay="0.00" arrival="59.00" arrivalLane="E_out_0" arrivalPos="189.60" arrivalSpeed="11.47" duration="59.00" routeLength="379.47" waitingTime="11.00" waitingCount="1" stopTime="0.00" timeLoss="25.24" rerouteNo="0" devices="vehroute_flow_7_phase1_S_right.0 tripinfo_flow_7_phase1_S_right.0" vType="container" speedFactor="0.85" vaporized=""/>
    <tripinfo id="flow_15_phase1_W_right.1" depart="45.00" departLane="W_in_0" departPos="156.52" departSpeed="7.69" departDelay="0.44" arrival="64.00" arrivalLane="S_out_0" arrivalPos="189.60" arrivalSpeed="14.36" duration="19.00" routeLength="231.71" waitingTime="0.00" waitingCount="0" stopTime="0.00" timeLoss="3.00" rerouteNo="0" devices="vehroute_flow_15_phase1_W_right.1 tripinfo_flow_15_phase1_W_right.1" vType="moto" speedFactor="1.08" vaporized=""/>
    <tripinfo id="flow_9_phase1_E_straight.1" depart="18.00" departLane="E_in_1" departPos="58.36" departSpeed="11.64" departDelay="0.52" arrival="65.00" arrivalLane="W_out_0" arrivalPos="189.60" arrivalSpeed="12.06" duration="47.00" routeLength="341.64" waitingTime="10.00" waitingCount="1" stopTime="0.00" timeLoss="18.03" rerouteNo="0" devices="vehroute_flow_9_phase1_E_straight.1 tripinfo_flow_9_phase1_E_straight.1" vType="moto" speedFactor="0.87" vaporized=""/>
    <tripinfo id="flow_9_phase1_E_straight.2" depart="35.00" departLane="E_in_1" departPos="52.87" departSpeed="0.38" departDelay="0.05" arrival="65.00" arrivalLane="W_out_1" arrivalPos="189.60" arrivalSpeed="12.66" duration="30.00" routeLength="347.13" waitingTime="0.00" waitingCount="0" stopTime="0.00" timeLoss="4.61" rerouteNo="0" devices="vehroute_flow_9_phase1_E_straight.2 tripinfo_flow_9_phase1_E_straight.2" vType="moto" speedFactor="0.99" vaporized=""/>
    <tripinfo id="flow_1_phase1_N_straight.3" depart="56.00" departLane="N_in_0" departPos="135.24" departSpeed="1.81" departDelay="0.97" arrival="78.00" arrivalLane="S_out_1" arrivalPos="189.60" arrivalSpeed="14.40" duration="22.00" routeLength="264.76" waitingTime="0.00" waitingCount="0" stopTime="0.00" timeLoss="3.29" rerouteNo="0" devices="vehroute_flow_1_phase1_N_straight.3 tripinfo_flow_1_phase1_N_straight.3" vType="car" speedFactor="1.05" vaporized=""/>
    <tripinfo id="flow_13_phase1_W_straight.0" depart="0.00" departLane="W_in_0" departPos="24.53" departSpeed="3.79" departDelay="0.00" arrival="79.00" arrivalLane="N_out_0" arrivalPos="189.60" arrivalSpeed="10.97" duration="79.00" routeLength="374.02" waitingTime="20.00" waitingCount="3" stopTime="0.00" timeLoss="45.08" rerouteNo="0" devices="vehroute_flow_13_phase1_W_straight.0 tripinfo_flow_13_phase1_W_straight.0" vType="container" speedFactor="0.82" vaporized=""/>
    <tripinfo id="flow_1_phase1_N_straight.2" depart="37.00" departLane="N_in_1" departPos="59.51" departSpeed="13.32" departDelay="0.31" arrival="80.00" arrivalLane="S_out_0" arrivalPos="189.60" arrivalSpeed="13.38" duration="43.00" routeLength="340.49" waitingTime="6.00" waitingCount="1" stopTime="0.00" timeLoss="16.84" rerouteNo="0" devices="vehroute_flow_1_phase1_N_straight.2 tripinfo_flow_1_phase1_N_straight.2" vType="bus" speedFactor="0.97" vaporized=""/>
    <tripinfo id="flow_11_phase1_E_right.1" depart="45.00" departLane="S_in_1" departPos="116.63" departSpeed="3.06" departDelay="0.91" arrival="81.00" arrivalLane="E_out_1" arrivalPos="189.60" arrivalSpeed="13.60" duration="36.00" routeLength="271.60" waitingTime="3.00" waitingCount="1" stopTime="0.00" timeLoss="15.83" rerouteNo="0" devices="vehroute_flow_11_phase1_E_right.1 tripinfo_flow_11_phase1_E_right.1" vType="moto" speedFactor="1.04" vaporized=""/>
    <tripinfo id="flow_6_phase1_S_left.1" depart="46.00" departLane="S_in_0" departPos="185.21" departSpeed="4.39" departDelay="0.60" arrival="82.00" arrivalLane="W_out_1" arrivalPos="189.60" arrivalSpeed="13.58" duration="36.00" routeLength="213.34" waitingTime="15.00" waitingCount="2" stopTime="0.00" timeLoss="20.43" rerouteNo="0" devices="vehroute_flow_6_phase1_S_left.1 tripinfo_flow_6_phase1_S_left.1" vType="moto" speedFactor="1.05" vaporized=""/>
    <tripinfo id="flow_14_phase1_W_left.1" depart="47.00" departLane="S_in_0" departPos="165.68" departSpeed="9.04" departDelay="0.22" arrival="82.00" arrivalLane="E_out_0" arrivalPos="189.60" arrivalSpeed="12.21" duration="35.00" routeLength="222.55" waitingTime="5.00" waitingCount="1" stopTime="0.00" timeLoss="16.03" rerouteNo="0" devices="vehroute_flow_14_phase1_W_left.1 tripinfo_flow_14_phase1_W_left.1" vType="container" speedFactor="0.91" vaporized=""/>
    <tripinfo id="flow_3_phase1_N_right.1" depart="47.00" departLane="N_in_1" departPos="93.41" departSpeed="7.65" departDelay="0.61" arrival="83.00" arrivalLane="W_out_0" arrivalPos="189.60" arrivalSpeed="11.66" duration="36.00" routeLength="294.82" waitingTime="1.00" waitingCount="1" stopTime="0.00" timeLoss="10.09" rerouteNo="0" devices="vehroute_flow_3_phase1_N_right.1 tripinfo_flow_3_phase1_N_right.1" vType="moto" speedFactor="0.88" vaporized=""/>
    <tripinfo id="flow_5_phase1_S_straight.2" depart="36.00" departLane="S_in_1" departPos="12.70" departSpeed="12.41" departDelay="0.09" arrival="85.00" arrivalLane="N_out_0" arrivalPos="189.60" arrivalSpeed="13.01" duration="49.00" routeLength="387.30" waitingTime="10.00" waitingCount="2" stopTime="0.00" timeLoss="19.34" rerouteNo="0" devices="vehroute_flow_5_phase1_S_straight.2 tripinfo_flow_5_phase1_S_straight.2" vType="moto" speedFactor="0.96" vaporized=""/>
    <tripinfo id="flow_2_phase1_N_left.1" depart="45.00" departLane="W_in_0" departPos="8.88" departSpeed="2.82" departDelay="0.65" arrival="86.00" arrivalLane="S_out_0" arrivalPos="189.60" arrivalSpeed="15.23" duration="41.00" routeLength="379.35" waitingTime="7.00" waitingCount="1" stopTime="0.00" timeLoss="15.65" rerouteNo="0" devices="vehroute_flow_2_phase1_N_left.1 tripinfo_flow_2_phase1_N_left.1" vType="moto" speedFactor="1.12" vaporized=""/>
    <tripinfo id="flow_9_phase1_E_straight.3" depart="53.00" departLane="E_in_0" departPos="56.18" departSpeed="11.50" departDelay="0.57" arrival="94.00" arrivalLane="W_out_0" arrivalPos="189.60" arrivalSpeed="11.82" duration="41.00" routeLength="343.82" waitingTime="3.00" waitingCount="1" stopTime="0.00" timeLoss="11.62" rerouteNo="0" devices="vehroute_flow_9_phase1_E_straight.3 tripinfo_flow_9_phase1_E_straight.3" vType="bus" speedFactor="0.85" vaporized=""/>
    <tripinfo id="flow_10_phase1_E_left.1" depart="46.00" departLane="E_in_0" departPos="19.85" departSpeed="3.23" departDelay="0.54" arrival="95.00" arrivalLane="S_out_0" arrivalPos="189.60" arrivalSpeed="10.36" duration="49.00" routeLength="378.70" waitingTime="2.00" waitingCount="1" stopTime="0.00" timeLoss="11.93" rerouteNo="0" devices="vehroute_flow_10_phase1_E_left.1 tripinfo_flow_10_phase1_E_left.1" vType="truck" speedFactor="0.77" vaporized=""/>
    <tripinfo id="flow_9_phase1_E_straight.4" depart="70.00" departLane="E_in_0" departPos="70.46" departSpeed="11.68" departDelay="0.10" arrival="96.00" arrivalLane="W_out_0" arrivalPos="189.60" arrivalSpeed="13.10" duration="26.00" routeLength="329.54" waitingTime="0.00" waitingCount="0" stopTime="0.00" timeLoss="1.04" rerouteNo="0" devices="vehroute_flow_9_phase1_E_straight.4 tripinfo_flow_9_phase1_E_straight.4" vType="bus" speedFactor="0.95" vaporized=""/>
    <tripinfo id="flow_13_phase1_W_straight.1" depart="19.00" departLane="W_in_1" departPos="121.65" departSpeed="2.86" departDelay="0.84" arrival="100.00" arrivalLane="N_out_1" arrivalPos="189.60" arrivalSpeed="14.37" duration="81.00" routeLength="276.90" waitingTime="35.00" waitingCount="5" stopTime="0.00" timeLoss="61.86" rerouteNo="0" devices="vehroute_flow_13_phase1_W_straight.1 tripinfo_flow_13_phase1_W_straight.1" vType="car" speedFactor="1.12" vaporized=""/>
    <tripinfo id="flow_5_phase1_S_straight.3" depart="54.00" departLane="S_in_0" departPos="132.62" departSpeed="5.13" departDelay="0.14" arrival="101.00" arrivalLane="N_out_0" arrivalPos="189.60" arrivalSpeed="14.45" duration="47.00" routeLength="267.38" waitingTime="19.00" waitingCount="1" stopTime="0.00" timeLoss="29.04" rerouteNo="0" devices="vehroute_flow_5_phase1_S_straight.3 tripinfo_flow_5_phase1_S_straight.3" vType="moto" speedFactor="1.08" vaporized=""/>
    <tripinfo id="flow_1_phase1_N_straight.4" depart="74.00" departLane="N_in_1" departPos="65.33" departSpeed="11.56" departDelay="0.62" arrival="107.00" arrivalLane="S_out_0" arrivalPos="189.60" arrivalSpeed="12.21" duration="33.00" routeLength="334.67" waitingTime="0.00" waitingCount="0" stopTime="0.00" timeLoss="6.09" rerouteNo="0" devices="vehroute_flow_1_phase1_N_straight.4 tripinfo_flow_1_phase1_N_straight.4" vType="truck" speedFactor="0.92" vaporized=""/>
    <tripinfo id="flow_5_phase1_S_straight.4" depart="72.00" departLane="S_in_1" departPos="74.07" departSpeed="0.57" departDelay="0.18" arrival="108.00" arrivalLane="N_out_1" arrivalPos="189.60" arrivalSpeed="13.34" duration="36.00" routeLength="325.93" waitingTime="0.00" waitingCount="0" stopTime="0.00" timeLoss="11.13" rerouteNo="0" devices="vehroute_flow_5_phase1_S_straight.4 tripinfo_flow_5_phase1_S_straight.4" vType="container" speedFactor="0.97" vaporized=""/>
    <tripinfo id="flow_7_phase1_S_right.1" depart="45.00" departLane="S_in_1" departPos="66.71" departSpeed="7.87" departDelay="0.90" arrival="109.00" arrivalLane="E_out_0" arrivalPos="189.60" arrivalSpeed="10.43" duration="64.00" routeLength="321.52" waitingTime="15.00" waitingCount="2" stopTime="0.00" timeLoss="33.85" rerouteNo="0" devices="vehroute_flow_7_phase1_S_right.1 tripinfo_flow_7_phase1_S_right.1" vType="container" speedFactor="0.78" vaporized=""/>
    <tripinfo id="flow_11_phase1_E_right.2" depart="89.00" departLane="S_in_0" departPos="155.68" departSpeed="9.79" departDelay="0.82" arrival="111.00" arrivalLane="E_out_0" arrivalPos="189.60" arrivalSpeed="14.82" duration="22.00" routeLength="232.55" waitingTime="0.00" waitingCount="0" stopTime="0.00" timeLoss="6.26" rerouteNo="0" devices="vehroute_flow_11_phase1_E_right.2 tripinfo_flow_11_phase1_E_right.2" vType="emergency" speedFactor="1.10" vaporized=""/>
    <tripinfo id="flow_9_phase1_E_straight.5" depart="88.00" departLane="E_in_1" departPos="111.69" departSpeed="6.16" departDelay="0.62" arrival="112.00" arrivalLane="W_out_1" arrivalPos="189.60" arrivalSpeed="13.47" duration="24.00" routeLength="288.31" waitingTime="0.00" waitingCount="0" stopTime="0.00" timeLoss="3.05" rerouteNo="0" devices="vehroute_flow_9_phase1_E_straight.5 tripinfo_flow_9_phase1_E_straight.5" vType="moto" speedFactor="1.03" vaporized=""/>
    <tripinfo id="flow_2_phase1_N_left.2" depart="89.00" departLane="W_in_1" departPos="129.09" departSpeed="5.26" departDelay="0.30" arrival="113.00" arrivalLane="S_out_0" arrivalPos="189.60" arrivalSpeed="13.18" duration="24.00" routeLength="259.14" waitingTime="0.00" waitingCount="0" stopTime="0.00" timeLoss="3.90" rerouteNo="0" devices="vehroute_flow_2_phase1_N_left.2 tripinfo_flow_2_phase1_N_left.2" vType="moto" speedFactor="1.00" vaporized=""/>
    <tripinfo id="flow_10_phase1_E_left.2" depart="91.00" departLane="E_in_0" departPos="92.42" departSpeed="15.81" departDelay="0.07" arrival="115.00" arrivalLane="S_out_1" arrivalPos="189.60" arrivalSpeed="14.95" duration="24.00" routeLength="306.13" waitingTime="0.00" waitingCount="0" stopTime="0.00" timeLoss="3.43" rerouteNo="0" devices="vehroute_flow_10_phase1_E_left.2 tripinfo_flow_10_phase1_E_left.2" vType="moto" speedFactor="1.14" vaporized=""/>
    <tripinfo id="flow_13_phase1_W_straight.2" depart="37.00" departLane="W_in_1" departPos="107.53" departSpeed="1.11" departDelay="0.67" arrival="117.00" arrivalLane="N_out_1" arrivalPos="189.60" arrivalSpeed="11.73" duration="80.00" routeLength="291.02" waitingTime="31.00" waitingCount="3" stopTime="0.00" timeLoss="56.74" rerouteNo="0" devices="vehroute_flow_13_phase1_W_straight.2 tripinfo_flow_13_phase1_W_straight.2" vType="moto" speedFactor="0.93" vaporized=""/>
    <tripinfo id="flow_13_phase1_W_straight.3" depart="55.00" departLane="W_in_0" departPos="53.32" departSpeed="7.46" departDelay="0.51" arrival="119.00" arrivalLane="N_out_1" arrivalPos="189.60" arrivalSpeed="15.13" duration="64.00" routeLength="345.23" waitingTime="24.00" waitingCount="2" stopTime="0.00" timeLoss="41.09" rerouteNo="0" devices="vehroute_flow_13_phase1_W_straight.3 tripinfo_flow_13_phase1_W_straight.3" vType="moto" speedFactor="1.20" vaporized=""/>
    <tripinfo id="flow_15_phase1_W_right.2" depart="90.00" departLane="W_in_1" departPos="2.21" departSpeed="9.40" departDelay="0.87" arrival="121.00" arrivalLane="S_out_0" arrivalPos="189.60" arrivalSpeed="14.19" duration="31.00" routeLength="386.02" waitingTime="0.00" waitingCount="0" stopTime="0.00" timeLoss="3.00" rerouteNo="0" devices="vehroute_flow_15_phase1_W_right.2 tripinfo_flow_15_phase1_W_right.2" vType="moto" speedFactor="1.03" vaporized=""/>
    <tripinfo id="flow_12_phase1_E_uturn.1" depart="90.00" departLane="E_in_0" departPos="64.25" departSpeed="6.13" departDelay="0.68" arrival="122.00" arrivalLane="E_out_1" arrivalPos="189.60" arrivalSpeed="12.00" duration="32.00" routeLength="319.62" waitingTime="0.00" waitingCount="0" stopTime="0.00" timeLoss="6.24" rerouteNo="0" devices="vehroute_flow_12_phase1_E_uturn.1 tripinfo_flow_12_phase1_E_uturn.1" vType="moto" speedFactor="0.94" vaporized=""/>
    <tripinfo id="flow_13_phase1_W_straight.4" depart="73.00" departLane="W_in_1" departPos="160.30" departSpeed="9.10" departDelay="0.34" arrival="123.00" arrivalLane="N_out_1" arrivalPos="189.60" arrivalSpeed="11.80" duration="50.00" routeLength="238.25" waitingTime="19.00" waitingCount="1" stopTime="0.00" timeLoss="28.83" rerouteNo="0" devices="vehroute_flow_13_phase1_W_straight.4 tripinfo_flow_13_phase1_W_straight.4" vType="bus" speedFactor="0.87" vaporized=""/>
    <tripinfo id="flow_3_phase1_N_right.2" depart="93.00" departLane="N_in_1" departPos="84.30" departSpeed="5.46" departDelay="0.22" arrival="126.00" arrivalLane="W_out_0" arrivalPos="189.60" arrivalSpeed="14.62" duration="33.00" routeLength="303.93" waitingTime="4.00" waitingCount="1" stopTime="0.00" timeLoss="12.12" rerouteNo="0" devices="vehroute_flow_3_phase1_N_right.2 tripinfo_flow_3_phase1_N_right.2" vType="moto" speedFactor="1.10" vaporized=""/>
    <tripinfo id="flow_7_phase1_S_right.2" depart="89.00" departLane="S_in_1" departPos="19.51" departSpeed="9.11" departDelay="0.80" arrival="127.00" arrivalLane="E_out_0" arrivalPos="189.60" arrivalSpeed="15.54" duration="38.00" routeLength="368.72" waitingTime="5.00" waitingCount="1" stopTime="0.00" timeLoss="13.29" rerouteNo="0" devices="vehroute_flow_7_phase1_S_right.2 tripinfo_flow_7_phase1_S_right.2" vType="moto" speedFactor="1.14" vaporized=""/>
    <tripinfo id="flow_5_phase1_S_straight.5" depart="90.00" departLane="S_in_0" departPos="91.52" departSpeed="11.74" departDelay="0.23" arrival="128.00" arrivalLane="N_out_0" arrivalPos="189.60" arrivalSpeed="12.74" duration="38.00" routeLength="308.48" waitingTime="8.00" waitingCount="1" stopTime="0.00" timeLoss="14.08" rerouteNo="0" devices="vehroute_flow_5_phase1_S_straight.5 tripinfo_flow_5_phase1_S_straight.5" vType="moto" speedFactor="0.95" vaporized=""/>
    <tripinfo id="flow_1_phase1_N_straight.5" depart="92.00" departLane="N_in_1" departPos="84.66" departSpeed="4.17" departDelay="0.28" arrival="130.00" arrivalLane="S_out_0" arrivalPos="189.60" arrivalSpeed="11.56" duration="38.00" routeLength="315.34" waitingTime="4.00" waitingCount="1" stopTime="0.00" timeLoss="12.22" rerouteNo="0" devices="vehroute_flow_1_phase1_N_straight.5 tripinfo_flow_1_phase1_N_straight.5" vType="moto" speedFactor="0.90" vaporized=""/>
    <tripinfo id="flow_1_phase1_N_straight.6" depart="111.00" departLane="N_in_0" departPos="161.31" departSpeed="3.41" departDelay="0.94" arrival="131.00" arrivalLane="S_out_0" arrivalPos="189.60" arrivalSpeed="13.01" duration="20.00" routeLength="238.69" waitingTime="0.00" waitingCount="0" stopTime="0.00" timeLoss="2.40" rerouteNo="0" devices="vehroute_flow_1_phase1_N_straight.6 tripinfo_flow_1_phase1_N_straight.6" vType="car" speedFactor="0.98" vaporized=""/>
    <tripinfo id="flow_14_phase1_W_left.2" depart="94.00" departLane="S_in_1" departPos="29.88" departSpeed="10.00" departDelay="0.44" arrival="132.00" arrivalLane="E_out_0" arrivalPos="189.60" arrivalSpeed="11.52" duration="38.00" routeLength="358.35" waitingTime="1.00" waitingCount="1" stopTime="0.00" timeLoss="8.22" rerouteNo="0" devices="vehroute_flow_14_phase1_W_left.2 tripinfo_flow_14_phase1_W_left.2" vType="car" speedFactor="0.90" vaporized=""/>
    <tripinfo id="flow_4_phase1_N_uturn.1" depart="90.00" departLane="N_in_1" departPos="2.77" departSpeed="7.17" departDelay="0.37" arrival="133.00" arrivalLane="N_out_1" arrivalPos="189.60" arrivalSpeed="12.71" duration="43.00" routeLength="381.10" waitingTime="0.00" waitingCount="0" stopTime="0.00" timeLoss="12.01" rerouteNo="0" devices="vehroute_flow_4_phase1_N_uturn.1 tripinfo_flow_4_phase1_N_uturn.1" vType="truck" speedFactor="0.94" vaporized=""/>
    <tripinfo id="flow_6_phase1_S_left.2" depart="91.00" departLane="S_in_1" departPos="155.35" departSpeed="12.62" departDelay="0.20" arrival="134.00" arrivalLane="W_out_1" arrivalPos="189.60" arrivalSpeed="14.83" duration="43.00" routeLength="243.20" waitingTime="18.00" waitingCount="2" stopTime="0.00" timeLoss="25.09" rerouteNo="0" devices="vehroute_flow_6_phase1_S_left.2 tripinfo_flow_6_phase1_S_left.2" vType="moto" speedFactor="1.07" vaporized=""/>
    <tripinfo id="flow_5_phase1_S_straight.6" depart="108.00" departLane="S_in_0" departPos="42.85" departSpeed="1.49" departDelay="0.28" arrival="135.00" arrivalLane="N_out_0" arrivalPos="189.60" arrivalSpeed="15.18" duration="27.00" routeLength="357.15" waitingTime="0.00" waitingCount="0" stopTime="0.00" timeLoss="3.46" rerouteNo="0" devices="vehroute_flow_5_phase1_S_straight.6 tripinfo_flow_5_phase1_S_straight.6" vType="moto" speedFactor="1.10" vaporized=""/>
    <tripinfo id="flow_8_phase1_S_uturn.1" depart="90.00" departLane="S_in_1" departPos="65.57" departSpeed="2.07" departDelay="0.53" arrival="136.00" arrivalLane="S_out_1" arrivalPos="189.60" arrivalSpeed="12.13" duration="46.00" routeLength="318.30" waitingTime="7.00" waitingCount="2" stopTime="0.00" timeLoss="18.28" rerouteNo="0" devices="vehroute_flow_8_phase1_S_uturn.1 tripinfo_flow_8_phase1_S_uturn.1" vType="moto" speedFactor="0.89" vaporized=""/>
    <tripinfo id="flow_9_phase1_E_straight.6" depart="105.00" departLane="E_in_0" departPos="149.69" departSpeed="1.84" departDelay="0.14" arrival="150.00" arrivalLane="W_out_0" arrivalPos="189.60" arrivalSpeed="13.38" duration="45.00" routeLength="250.31" waitingTime="19.00" waitingCount="1" stopTime="0.00" timeLoss="27.27" rerouteNo="0" devices="vehroute_flow_9_phase1_E_straight.6 tripinfo_flow_9_phase1_E_straight.6" vType="moto" speedFactor="1.02" vaporized=""/>
    <tripinfo id="flow_9_phase1_E_straight.7" depart="123.00" departLane="E_in_1" departPos="45.20" departSpeed="2.67" departDelay="0.67" arrival="152.00" arrivalLane="W_out_1" arrivalPos="189.60" arrivalSpeed="13.17" duration="29.00" routeLength="354.80" waitingTime="0.00" waitingCount="0" stopTime="0.00" timeLoss="3.57" rerouteNo="0" devices="vehroute_flow_9_phase1_E_straight.7 tripinfo_flow_9_phase1_E_straight.7" vType="moto" speedFactor="1.01" vaporized=""/>
    <tripinfo id="flow_15_phase1_W_right.3" depart="134.00" departLane="W_in_0" departPos="114.62" departSpeed="11.82" departDelay="0.31" arrival="154.00" arrivalLane="S_out_0" arrivalPos="189.60" arrivalSpeed="15.80" duration="20.00" routeLength="273.61" waitingTime="0.00" waitingCount="0" stopTime="0.00" timeLoss="2.21" rerouteNo="0" devices="vehroute_flow_15_phase1_W_right.3 tripinfo_flow_15_phase1_W_right.3" vType="moto" speedFactor="1.17" vaporized=""/>
    <tripinfo id="flow_16_phase1_W_uturn.1" depart="90.00" departLane="W_in_0" departPos="78.09" departSpeed="11.28" departDelay="0.15" arrival="161.00" arrivalLane="W_out_0" arrivalPos="189.60" arrivalSpeed="12.26" duration="71.00" routeLength="305.78" waitingTime="29.00" waitingCount="2" stopTime="0.00" timeLoss="44.30" rerouteNo="0" devices="vehroute_flow_16_phase1_W_uturn.1 tripinfo_flow_16_phase1_W_uturn.1" vType="truck" speedFactor="0.89" vaporized=""/>
    <tripinfo id="flow_1_phase1_N_straight.7" depart="129.00" departLane="N_in_0" departPos="6.57" departSpeed="8.41" departDelay="0.59" arrival="162.00" arrivalLane="S_out_0" arrivalPos="189.60" arrivalSpeed="14.62" duration="33.00" routeLength="393.43" waitingTime="0.00" waitingCount="0" stopTime="0.00" timeLoss="5.78" rerouteNo="0" devices="vehroute_flow_1_phase1_N_straight.7 tripinfo_flow_1_phase1_N_straight.7" vType="moto" speedFactor="1.06" vaporized=""/>
    <tripinfo id="flow_9_phase1_E_straight.8" depart="140.00" departLane="E_in_1" departPos="173.60" departSpeed="9.83" departDelay="0.19" arrival="162.00" arrivalLane="W_out_1" arrivalPos="189.60" arrivalSpeed="11.77" duration="22.00" routeLength="226.40" waitingTime="0.00" waitingCount="0" stopTime="0.00" timeLoss="4.56" rerouteNo="0" devices="vehroute_flow_9_phase1_E_straight.8 tripinfo_flow_9_phase1_E_straight.8" vType="moto" speedFactor="0.94" vaporized=""/>