<?xml version="1.0" encoding="UTF-8"?>

<!-- generated on 2025-12-09 22:49:31 by Eclipse SUMO sumo Version 1.18.0
<configuration xmlns:xsi="http://www.w3.org/2001/XMLSchema-instance" xsi:noNamespaceSchemaLocation="http://sumo.dlr.de/xsd/sumoConfiguration.xsd">

    <input>
        <net-file value="nets/60p2k/net.net.xml"/>
        <route-files value="nets/60p2k/route_temp_566_135378486671152_42584019.rou.xml"/>
    </input>

    <output>
        <summary-output value="result_ddqn_1.4_0.1/summary_ep_10.xml"/>
        <tripinfo-output value="result_ddqn_1.4_0.1/tripinfo_ep_10.xml"/>
        <vehroute-output value="result_ddqn_1.4_0.1/vehroute_ep_10.xml"/>
    </output>

    <time>
        <begin value="0"/>
    </time>

    <report>
        <verbose value="true"/>
        <no-warnings value="true"/>
        <no-step-log value="true"/>
    </report>

    <traci_server>
        <remote-port value="56549"/>
    </traci_server>

    <gui_only>
        <gui-settings-file value="nets/60p2k/gui-settings.xml"/>
        <quit-on-end value="true"/>
    </gui_only>

</configuration>
-->

<routes xmlns:xsi="http://www.w3.org/2001/XMLSchema-instance" xsi:noNamespaceSchemaLocation="http://sumo.dlr.de/xsd/routes_file.xsd">
    <vehicle id="flow_3_phase1_N_right.0" type="car" depart="0.00" departLane="0" departPos="103.3842" departSpeed="3.7523" speedFactor="1.0907" arrival="24.00">
        <route edges="N_in W_out"/>
    </vehicle>

    <vehicle id="flow_8_phase1_S_uturn.0" type="moto" depart="0.00" departLane="0" departPos="120.1072" departSpeed="4.4837" speedFactor="1.0505" arrival="24.00">
        <route edges="S_in S_out"/>
    </vehicle>

    <vehicle id="flow_5_phase1_S_straight.0" type="moto" depart="0.00" departLane="1" departPos="107.3659" departSpeed="7.2113" speedFactor="1.1475" arrival="25.00">
        <route edges="S_in N_out"/>
    </vehicle>

    <vehicle id="flow_6_phase1_S_left.0" type="moto" depart="0.00" departLane="1" departPos="166.0107" departSpeed="0.7376" speedFactor="0.8806" arrival="25.00">
        <route edges="S_in W_out"/>
    </vehicle>

    <vehicle id="flow_2_phase1_N_left.0" type="moto" depart="0.00" departLane="1" departPos="8.2688" departSpeed="8.3291" speedFactor="1.0157" arrival="31.00">
        <route edges="N_in E_out"/>
    </vehicle>

    <vehicle id="flow_14_phase1_W_left.0" type="moto" depart="0.00" departLane="1" departPos="182.8773" departSpeed="5.6108" speedFactor="1.0101" arrival="36.00">
        <route edges="W_in N_out"/>
    </vehicle>

    <vehicle id="flow_4_phase1_N_uturn.0" type="car" depart="0.00" departLane="1" departPos="127.6015" departSpeed="0.0774" speedFactor="0.9228" arrival="37.00">
        <route edges="W_in S_out"/>
    </vehicle>

    <vehicle id="flow_16_phase1_W_uturn.0" type="moto" depart="0.00" departLane="0" departPos="126.6766" departSpeed="11.7148" speedFactor="1.0383" arrival="38.00">
        <route edges="W_in W_out"/>
    </vehicle>

    <vehicle id="flow_11_phase1_E_right.0" type="bus" depart="0.00" departLane="1" departPos="144.9496" departSpeed="4.0187" speedFactor="0.9581" arrival="40.00">
        <route edges="E_in N_out"/>
    </vehicle>

    <vehicle id="flow_15_phase1_W_right.0" type="moto" depart="0.00" departLane="0" departPos="108.377" departSpeed="2.6276" speedFactor="0.8472" arrival="41.00">
        <route edges="W_in S_out"/>
    </vehicle>

    <vehicle id="flow_13_phase1_W_straight.1" type="car" depart="19.00" departLane="1" departPos="121.6549" departSpeed="2.8591" speedFactor="1.1218" arrival="44.00">
        <route edges="W_in E_out"/>
    </vehicle>

    <vehicle id="flow_13_phase1_W_straight.0" type="container" depart="0.00" departLane="0" departPos="24.5296" departSpeed="3.7887" speedFactor="0.8227" arrival="45.00">
        <route edges="W_in E_out"/>
    </vehicle>

    <vehicle id="flow_1_phase1_N_straight.1" type="moto" depart="19.00" departLane="1" departPos="31.9285" departSpeed="9.2811" speedFactor="1.1853" arrival="45.00">
        <route edges="N_in S_out"/>
    </vehicle>

    <vehicle id="flow_5_phase1_S_straight.1" type="moto" depart="18.00" departLane="0" departPos="131.129" departSpeed="9.5396" speedFactor="1.1582" arrival="48.00">
        <route edges="S_in N_out"/>
    </vehicle>

    <vehicle id="flow_9_phase1_E_straight.0" type="truck" depart="0.00" departLane="0" departPos="168.2937" departSpeed="9.8263" speedFactor="0.8990" arrival="54.00">
        <route edges="E_in E_out"/>
    </vehicle>

    <vehicle id="flow_1_phase1_N_straight.0" type="bus" depart="0.00" departLane="0" departPos="8.6229" departSpeed="8.5053" speedFactor="0.8588" arrival="56.00">
        <route edges="N_in S_out"/>
    </vehicle>

    <vehicle id="flow_7_phase1_S_right.0" type="container" depart="0.00" departLane="0" departPos="8.759" departSpeed="8.0654" speedFactor="0.8488" arrival="57.00">
        <route edges="S_in E_out"/>
    </vehicle>

    <vehicle id="flow_13_phase1_W_straight.2" type="moto" depart="37.00" departLane="1" departPos="107.5311" departSpeed="1.1094" speedFactor="0.9279" arrival="64.00">
        <route edges="W_in E_out"/>
    </vehicle>

    <vehicle id="flow_11_phase1_E_right.1" type="moto" depart="45.00" departLane="1" departPos="128.6773" departSpeed="3.0596" speedFactor="1.0365" arrival="69.00">
        <route edges="E_in N_out"/>
    </vehicle>

    <vehicle id="flow_10_phase1_E_left.0" type="truck" depart="0.00" departLane="0" departPos="44.8816" departSpeed="7.6878" speedFactor="1.0161" arrival="70.00">
        <route edges="E_in S_out"/>
    </vehicle>

    <vehicle id="flow_12_phase1_E_uturn.0" type="moto" depart="0.00" departLane="0" departPos="5.6544" departSpeed="13.7593" speedFactor="1.0348" arrival="70.00">
        <route edges="E_in E_out"/>
    </vehicle>

    <vehicle id="flow_15_phase1_W_right.1" type="moto" depart="45.00" departLane="0" departPos="73.8966" departSpeed="9.2239" speedFactor="1.0788" arrival="70.00">
        <route edges="W_in S_out"/>
    </vehicle>

    <vehicle id="flow_5_phase1_S_straight.2" type="moto" depart="36.00" departLane="1" departPos="12.6982" departSpeed="12.4143" speedFactor="0.9623" arrival="76.00">
        <route edges="S_in N_out"/>
    </vehicle>

    <vehicle id="flow_3_phase1_N_right.1" type="moto" depart="47.00" departLane="0" departPos="166.0021" departSpeed="1.2818" speedFactor="0.8806" arrival="76.00">
        <route edges="N_in W_out"/>
    </vehicle>

    <vehicle id="flow_1_phase1_N_straight.3" type="car" depart="56.00" departLane="0" departPos="125.4807" departSpeed="6.7924" speedFactor="1.0479" arrival="77.00">
        <route edges="N_in S_out"/>
    </vehicle>

    <vehicle id="flow_1_phase1_N_straight.2" type="bus" depart="37.00" departLane="1" departPos="59.5081" departSpeed="13.3195" speedFactor="0.9657" arrival="80.00">
        <route edges="N_in S_out"/>
    </vehicle>

    <vehicle id="flow_6_phase1_S_left.1" type="moto" depart="46.00" departLane="1" departPos="110.9191" departSpeed="11.9947" speedFactor="1.0453" arrival="82.00">
        <route edges="S_in W_out"/>
    </vehicle>

    <vehicle id="flow_7_phase1_S_right.1" type="container" depart="45.00" departLane="1" departPos="66.71" departSpeed="7.8717" speedFactor="0.7845" arrival="83.00">
        <route edges="S_in E_out"/>
    </vehicle>

    <vehicle id="flow_5_phase1_S_straight.3" type="moto" depart="54.00" departLane="0" departPos="56.1823" departSpeed="14.5353" speedFactor="1.0764" arrival="83.00">
        <route edges="S_in N_out"/>
    </vehicle>

    <vehicle id="flow_2_phase1_N_left.1" type="moto" depart="45.00" departLane="0" departPos="8.8817" departSpeed="2.8196" speedFactor="1.1228" arrival="86.00">
        <route edges="N_in E_out"/>
    </vehicle>

    <vehicle id="flow_13_phase1_W_straight.3" type="moto" depart="55.00" departLane="0" departPos="132.6219" departSpeed="5.486" speedFactor="1.2027" arrival="86.00">
        <route edges="W_in E_out"/>
    </vehicle>

    <vehicle id="flow_9_phase1_E_straight.1" type="moto" depart="18.00" departLane="1" departPos="58.3562" departSpeed="11.6446" speedFactor="0.8727" arrival="93.00">
        <route edges="E_in E_out"/>
    </vehicle>

    <vehicle id="flow_9_phase1_E_straight.2" type="moto" depart="35.00" departLane="1" departPos="52.8684" departSpeed="0.3845" speedFactor="0.9938" arrival="95.00">
        <route edges="E_in E_out"/>
    </vehicle>

    <vehicle id="flow_14_phase1_W_left.1" type="container" depart="47.00" departLane="0" departPos="80.5996" departSpeed="9.8532" speedFactor="0.9146" arrival="95.00">
        <route edges="W_in N_out"/>
    </vehicle>

    <vehicle id="flow_9_phase1_E_straight.3" type="bus" depart="53.00" departLane="1" departPos="165.6783" departSpeed="5.3945" speedFactor="0.8515" arrival="101.00">
        <route edges="E_in E_out"/>
    </vehicle>

    <vehicle id="flow_5_phase1_S_straight.4" type="container" depart="72.00" departLane="0" departPos="26.7631" departSpeed="9.623" speedFactor="0.9706" arrival="101.00">
        <route edges="S_in N_out"/>
    </vehicle>

    <vehicle id="flow_1_phase1_N_straight.4" type="truck" depart="74.00" departLane="0" departPos="128.0429" departSpeed="4.9925" speedFactor="0.9194" arrival="102.00">
        <route edges="N_in S_out"/>
    </vehicle>

    <vehicle id="flow_5_phase1_S_straight.5" type="moto" depart="90.00" departLane="0" departPos="179.131" departSpeed="10.862" speedFactor="0.9517" arrival="108.00">
        <route edges="S_in N_out"/>
    </vehicle>

    <vehicle id="flow_11_phase1_E_right.2" type="emergency" depart="89.00" departLane="1" departPos="112.3734" departSpeed="10.3998" speedFactor="1.0989" arrival="111.00">
        <route edges="E_in N_out"/>
    </vehicle>

    <vehicle id="flow_13_phase1_W_straight.4" type="bus" depart="73.00" departLane="0" departPos="91.0122" departSpeed="4.4892" speedFactor="0.8691" arrival="120.00">
        <route edges="W_in E_out"/>
    </vehicle>

    <vehicle id="flow_4_phase1_N_uturn.1" type="truck" depart="90.00" departLane="1" departPos="162.4039" departSpeed="1.3436" speedFactor="0.9396" arrival="121.00">
        <route edges="W_in S_out"/>
    </vehicle>

    <vehicle id="flow_15_phase1_W_right.2" type="moto" depart="90.00" departLane="1" departPos="89.1662" departSpeed="11.3855" speedFactor="1.0265" arrival="123.00">
        <route edges="W_in S_out"/>
    </vehicle>

    <vehicle id="flow_16_phase1_W_uturn.1" type="truck" depart="90.00" departLane="1" departPos="124.8757" departSpeed="0.0106" speedFactor="0.8923" arrival="125.00">
        <route edges="W_in W_out"/>
    </vehicle>

    <vehicle id="flow_7_phase1_S_right.2" type="moto" depart="89.00" departLane="0" departPos="52.573" departSpeed="9.361" speedFactor="1.1432" arrival="126.00">
        <route edges="S_in E_out"/>
    </vehicle>

    <vehicle id="flow_3_phase1_N_right.2" type="moto" depart="93.00" departLane="1" departPos="63.1043" departSpeed="7.1052" speedFactor="1.1043" arrival="127.00">
        <route edges="N_in W_out"/>
    </vehicle>

    <vehicle id="flow_2_phase1_N_left.2" type="moto" depart="89.00" departLane="0" departPos="125.7621" departSpeed="4.7721" speedFactor="0.9964" arrival="128.00">
        <route edges="N_in E_out"/>
    </vehicle>

    <vehicle id="flow_1_phase1_N_straight.5" type="moto" depart="92.00" departLane="1" departPos="177.4982" departSpeed="6.1115" speedFactor="0.9020" arrival="129.00">
        <route edges="N_in S_out"/>
    </vehicle>

    <vehicle id="flow_10_phase1_E_left.1" type="truck" depart="46.00" departLane="1" departPos="4.5211" departSpeed="3.8907" speedFactor="0.7665" arrival="130.00">
        <route edges="E_in S_out"/>
    </vehicle>

    <vehicle id="flow_6_phase1_S_left.2" type="moto" depart="91.00" departLane="1" departPos="92.2234" departSpeed="0.173" speedFactor="1.0668" arrival="131.00">
        <route edges="S_in W_out"/>
    </vehicle>

    <vehicle id="flow_8_phase1_S_uturn.1" type="moto" depart="90.00" departLane="0" departPos="168.2148" departSpeed="0.1806" speedFactor="0.8882" arrival="132.00">
        <route edges="S_in S_out"/>
    </vehicle>

    <vehicle id="flow_5_phase1_S_straight.6" type="moto" depart="108.00" departLane="1" departPos="29.8839" departSpeed="12.2398" speedFactor="1.0983" arrival="134.00">
        <route edges="S_in N_out"/>
    </vehicle>

    <vehicle id="flow_13_phase1_W_straight.5" type="moto" depart="91.00" departLane="1" departPos="74.602" departSpeed="11.8331" speedFactor="1.0390" arrival="140.00">
        <route edges="W_in E_out"/>
    </vehicle>

    <vehicle id="flow_13_phase1_W_straight.6" type="car" depart="109.00" departLane="0" departPos="149.6933" departSpeed="1.7566" speedFactor="0.9759" arrival="141.00">
        <route edges="W_in E_out"/>
    </vehicle>

    <vehicle id="flow_14_phase1_W_left.2" type="car" depart="94.00" departLane="1" departPos="84.6621" departSpeed="1.913" speedFactor="0.8975" arrival="144.00">
        <route edges="W_in N_out"/>
    </vehicle>

    <vehicle id="flow_9_phase1_E_straight.4" type="bus" depart="70.00" departLane="1" departPos="135.0364" departSpeed="3.7231" speedFactor="0.9525" arrival="149.00">
        <route edges="E_in E_out"/>
    </vehicle>

    <vehicle id="flow_1_phase1_N_straight.7" type="moto" depart="129.00" departLane="1" departPos="107.805" departSpeed="13.5592" speedFactor="1.0626" arrival="150.00">
        <route edges="N_in S_out"/>
    </vehicle>

    <vehicle id="flow_13_phase1_W_straight.7" type="moto" depart="128.00" departLane="0" departPos="178.3578" departSpeed="2.6522" speedFactor="0.8003" arrival="151.00">
        <route edges="W_in E_out"/>
    </vehicle>

    <vehicle id="flow_5_phase1_S_straight.7" type="bus" depart="126.00" departLane="1" departPos="88.3207" departSpeed="10.6904" speedFactor="0.9040" arrival="153.00">
        <route edges="S_in N_out"/>
    </vehicle>

    <vehicle id="flow_1_phase1_N_straight.6" type="car" depart="111.00" departLane="0" departPos="42.8454" departSpeed="1.3305" speedFactor="0.9797" arrival="154.00">
        <route edges="N_in S_out"/>
    </vehicle>

    <vehicle id="flow_6_phase1_S_left.3" type="car" depart="137.00" departLane="0" departPos="150.3232" departSpeed="6.5622" speedFactor="1.0972" arrival="158.00">
        <route edges="S_in W_out"/>
    </vehicle>

    <vehicle id="flow_15_phase1_W_right.3" type="moto" depart="134.00" departLane="1" departPos="111.5719" departSpeed="0.1173" speedFactor="1.1705" arrival="163.00">
        <route edges="W_in S_out"/>
    </vehicle>

    <vehicle id="flow_9_phase1_E_straight.5" type="moto" depart="88.00" departLane="1" departPos="29.1154" departSpeed="12.0849" speedFactor="1.0283" arrival="166.00">
        <route edges="E_in E_out"/>
    </vehicle>

    <vehicle id="flow_11_phase1_E_right.3" type="moto" depart="133.00" departLane="1" departPos="142.1182" departSpeed="0.401" speedFactor="0.8330" arrival="168.00">
        <route edges="E_in N_out"/>
    </vehicle>

    <vehicle id="flow_12_phase1_E_uturn.1" type="moto" depart="90.00" departLane="0" departPos="31.7588" departSpeed="11.7707" speedFactor="0.9374" arrival="169.00">
        <route edges="E_in E_out"/>
    </vehicle>

    <vehicle id="flow_14_phase1_W_left.3" type="moto" depart="141.00" departLane="0" departPos="42.0768" departSpeed="8.2474" speedFactor="1.0873" arrival="169.00">
        <route edges="W_in N_out"/>
    </vehicle>

    <vehicle id="flow_13_phase1_W_straight.8" type="moto" depart="146.00" departLane="1" departPos="84.7431" departSpeed="3.8254" speedFactor="1.0413" arrival="171.00">
        <route edges="W_in E_out"/>
    </vehicle>

    <vehicle id="flow_10_phase1_E_left.2" type="moto" depart="91.00" departLane="1" departPos="21.6793" departSpeed="6.5338" speedFactor="1.1413" arrival="175.00">
        <route edges="E_in S_out"/>
    </vehicle>

    <vehicle id="flow_9_phase1_E_straight.6" type="moto" depart="105.00" departLane="1" departPos="84.296" departSpeed="10.2557" speedFactor="1.0203" arrival="176.00">
        <route edges="E_in E_out"/>
    </vehicle>

    <vehicle id="flow_7_phase1_S_right.3" type="moto" depart="133.00" departLane="0" departPos="16.037" departSpeed="5.9885" speedFactor="1.0682" arrival="177.00">
        <route edges="S_in E_out"/>
    </vehicle>

    <vehicle id="flow_5_phase1_S_straight.8" type="emergency" depart="144.00" departLane="0" departPos="35.6434" departSpeed="3.6539" speedFactor="1.1380" arrival="177.00">
        <route edges="S_in N_out"/>
    </vehicle>

    <vehicle id="flow_1_phase1_N_straight.8" type="moto" depart="147.00" departLane="0" departPos="157.0309" departSpeed="10.2924" speedFactor="0.9730" arrival="180.00">
        <route edges="N_in S_out"/>
    </vehicle>

    <vehicle id="flow_3_phase1_N_right.3" type="moto" depart="140.00" departLane="1" departPos="20.793" departSpeed="5.2733" speedFactor="0.9618" arrival="181.00">
        <route edges="N_in W_out"/>
    </vehicle>

    <vehicle id="flow_5_phase1_S_straight.9" type="moto" depart="162.00" departLane="1" departPos="109.1161" departSpeed="3.3873" speedFactor="1.2976" arrival="183.00">
        <route edges="S_in N_out"/>
    </vehicle>

    <vehicle id="flow_2_phase1_N_left.3" type="moto" depart="134.00" departLane="1" departPos="22.6438" departSpeed="8.22" speedFactor="0.8878" arrival="185.00">
        <route edges="N_in E_out"/>
    </vehicle>

    <vehicle id="flow_9_phase1_E_straight.7" type="moto" depart="123.00" departLane="1" departPos="60.8307" departSpeed="2.7383" speedFactor="1.0085" arrival="192.00">
        <route edges="E_in E_out"/>
    </vehicle>

    <vehicle id="flow_9_phase1_E_straight.8" type="moto" depart="140.00" departLane="1" departPos="109.812" departSpeed="0.152" speedFactor="0.9385" arrival="195.00">
        <route edges="E_in E_out"/>
    </vehicle>

    <vehicle id="flow_11_phase1_E_right.4" type="container" depart="177.00" departLane="0" departPos="151.0147" departSpeed="9.8587" speedFactor="1.0240" arrival="200.00">
        <route edges="E_in N_out"/>
    </vehicle>

    <vehicle id="flow_13_phase1_W_straight.9" type="moto" depart="164.00" departLane="1" departPos="5.9732" departSpeed="0.3678" speedFactor="0.8391" arrival="202.00">
        <route edges="W_in E_out"/>
    </vehicle>

    <vehicle id="flow_10_phase1_E_left.3" type="truck" depart="137.00" departLane="0" departPos="36.1365" departSpeed="8.9502" speedFactor="1.0651" arrival="205.00">
        <route edges="E_in S_out"/>
    </vehicle>

    <vehicle id="flow_7_phase1_S_right.4" type="moto" depart="177.00" departLane="0" departPos="96.1141" departSpeed="7.8236" speedFactor="0.9645" arrival="205.00">
        <route edges="S_in E_out"/>
    </vehicle>

    <vehicle id="flow_5_phase1_S_straight.10" type="moto" depart="180.00" departLane="1" departPos="146.8151" departSpeed="13.1323" speedFactor="1.0281" arrival="207.00">
        <route edges="S_in N_out"/>
    </vehicle>

    <vehicle id="flow_1_phase1_N_straight.9" type="truck" depart="166.00" departLane="0" departPos="65.0172" departSpeed="2.7144" speedFactor="0.9670" arrival="209.00">
        <route edges="N_in S_out"/>
    </vehicle>

    <vehicle id="flow_2_phase1_N_left.4" type="moto" depart="178.00" departLane="1" departPos="64.7255" departSpeed="6.1591" speedFactor="1.1571" arrival="209.00">
        <route edges="N_in E_out"/>
    </vehicle>

    <vehicle id="flow_3_phase1_N_right.4" type="moto" depart="186.00" departLane="0" departPos="131.4461" departSpeed="13.7756" speedFactor="1.0387" arrival="209.00">
        <route edges="N_in W_out"/>
    </vehicle>

    <vehicle id="flow_1_phase1_N_straight.10" type="bus" depart="184.00" departLane="0" departPos="57.4616" departSpeed="5.8384" speedFactor="1.0325" arrival="212.00">
        <route edges="N_in S_out"/>
    </vehicle>

    <vehicle id="flow_8_phase1_S_uturn.2" type="moto" depart="179.00" departLane="0" departPos="29.1188" departSpeed="4.0371" speedFactor="0.9897" arrival="216.00">
        <route edges="S_in S_out"/>
    </vehicle>

    <vehicle id="flow_13_phase1_W_straight.10" type="moto" depart="182.00" departLane="1" departPos="169.9316" departSpeed="3.8194" speedFactor="1.1421" arrival="217.00">
        <route edges="W_in E_out"/>
    </vehicle>

    <vehicle id="flow_15_phase1_W_right.4" type="bus" depart="179.00" departLane="0" departPos="124.2821" departSpeed="11.7183" speedFactor="0.9032" arrival="223.00">
        <route edges="W_in S_out"/>
    </vehicle>

    <vehicle id="flow_4_phase1_N_uturn.2" type="car" depart="180.00" departLane="0" departPos="2.1035" departSpeed="13.1554" speedFactor="1.0323" arrival="223.00">
        <route edges="W_in S_out"/>
    </vehicle>

    <vehicle id="flow_16_phase1_W_uturn.2" type="car" depart="180.00" departLane="0" departPos="109.2982" departSpeed="9.8185" speedFactor="0.8850" arrival="223.00">
        <route edges="W_in W_out"/>
    </vehicle>

    <vehicle id="flow_13_phase1_W_straight.11" type="moto" depart="200.00" departLane="0" departPos="161.6079" departSpeed="1.1052" speedFactor="1.0140" arrival="225.00">
        <route edges="W_in E_out"/>
    </vehicle>

    <vehicle id="flow_14_phase1_W_left.4" type="bus" depart="188.00" departLane="0" departPos="172.0661" departSpeed="1.5274" speedFactor="0.8196" arrival="229.00">
        <route edges="W_in N_out"/>
    </vehicle>

    <vehicle id="flow_9_phase1_E_straight.9" type="truck" depart="158.00" departLane="1" departPos="69.3051" departSpeed="13.0559" speedFactor="1.0019" arrival="230.00">
        <route edges="E_in E_out"/>
    </vehicle>

    <vehicle id="flow_1_phase1_N_straight.11" type="truck" depart="202.00" departLane="1" departPos="187.4776" departSpeed="0.0995" speedFactor="0.9137" arrival="236.00">
        <route edges="N_in S_out"/>
    </vehicle>

    <vehicle id="flow_6_phase1_S_left.4" type="moto" depart="182.00" departLane="0" departPos="34.8311" departSpeed="5.7275" speedFactor="1.0387" arrival="237.00">
        <route edges="S_in W_out"/>
    </vehicle>

    <vehicle id="flow_5_phase1_S_straight.11" type="bus" depart="198.00" departLane="1" departPos="168.8768" departSpeed="7.735" speedFactor="0.9784" arrival="237.00">
        <route edges="S_in N_out"/>
    </vehicle>

    <vehicle id="flow_11_phase1_E_right.5" type="moto" depart="221.00" departLane="0" departPos="154.6775" departSpeed="6.0902" speedFactor="1.2552" arrival="240.00">
        <route edges="E_in N_out"/>
    </vehicle>

    <vehicle id="flow_13_phase1_W_straight.12" type="moto" depart="218.00" departLane="1" departPos="133.5978" departSpeed="10.7851" speedFactor="1.1365" arrival="243.00">
        <route edges="W_in E_out"/>
    </vehicle>

    <vehicle id="flow_9_phase1_E_straight.10" type="moto" depart="175.00" departLane="1" departPos="150.7313" departSpeed="0.6133" speedFactor="1.1157" arrival="246.00">
        <route edges="E_in E_out"/>
    </vehicle>

    <vehicle id="flow_12_phase1_E_uturn.2" type="bus" depart="179.00" departLane="1" departPos="123.8246" departSpeed="4.1314" speedFactor="0.9315" arrival="253.00">
        <route edges="E_in E_out"/>
    </vehicle>

    <vehicle id="flow_5_phase1_S_straight.12" type="moto" depart="216.00" departLane="0" departPos="8.1725" departSpeed="3.7093" speedFactor="1.0699" arrival="256.00">
        <route edges="S_in N_out"/>
    </vehicle>

    <vehicle id="flow_1_phase1_N_straight.12" type="truck" depart="221.00" departLane="0" departPos="144.3932" departSpeed="2.9461" speedFactor="0.9615" arrival="261.00">
        <route edges="N_in S_out"/>
    </vehicle>

    <vehicle id="flow_7_phase1_S_right.5" type="truck" depart="221.00" departLane="1" departPos="49.5467" departSpeed="8.7256" speedFactor="1.0532" arrival="261.00">
        <route edges="S_in E_out"/>
    </vehicle>

    <vehicle id="flow_3_phase1_N_right.5" type="moto" depart="232.00" departLane="1" departPos="50.8725" departSpeed="10.7563" speedFactor="0.9059" arrival="264.00">
        <route edges="N_in W_out"/>
    </vehicle>

    <vehicle id="flow_2_phase1_N_left.5" type="car" depart="222.00" departLane="1" departPos="97.1832" departSpeed="3.3808" speedFactor="0.8868" arrival="268.00">
        <route edges="N_in E_out"/>
    </vehicle>

    <vehicle id="flow_6_phase1_S_left.5" type="bus" depart="227.00" departLane="1" departPos="80.1718" departSpeed="11.4243" speedFactor="0.9819" arrival="268.00">
        <route edges="S_in W_out"/>
    </vehicle>

    <vehicle id="flow_10_phase1_E_left.4" type="moto" depart="182.00" departLane="0" departPos="123.2337" departSpeed="11.7664" speedFactor="1.0039" arrival="270.00">
        <route edges="E_in S_out"/>
    </vehicle>

    <vehicle id="flow_15_phase1_W_right.5" type="car" depart="223.00" departLane="1" departPos="15.5808" departSpeed="1.1238" speedFactor="0.9653" arrival="271.00">
        <route edges="W_in S_out"/>
    </vehicle>

    <vehicle id="flow_9_phase1_E_straight.11" type="moto" depart="193.00" departLane="0" departPos="3.1111" departSpeed="8.7758" speedFactor="1.0448" arrival="273.00">
        <route edges="E_in E_out"/>
    </vehicle>

    <vehicle id="flow_14_phase1_W_left.5" type="bus" depart="234.00" departLane="0" departPos="114.397" departSpeed="8.7424" speedFactor="0.9554" arrival="274.00">
        <route edges="W_in N_out"/>
    </vehicle>

    <vehicle id="flow_13_phase1_W_straight.13" type="moto" depart="237.00" departLane="1" departPos="120.4896" departSpeed="9.4092" speedFactor="0.8917" arrival="274.00">
        <route edges="W_in E_out"/>
    </vehicle>

    <vehicle id="flow_9_phase1_E_straight.12" type="moto" depart="210.00" departLane="0" departPos="10.777" departSpeed="2.01" speedFactor="1.0047" arrival="275.00">
        <route edges="E_in E_out"/>
    </vehicle>

    <vehicle id="flow_10_phase1_E_left.5" type="moto" depart="228.00" departLane="0" departPos="98.6919" departSpeed="8.0058" speedFactor="1.0856" arrival="275.00">
        <route edges="E_in S_out"/>
    </vehicle>

    <vehicle id="flow_9_phase1_E_straight.13" type="moto" depart="228.00" departLane="0" departPos="11.4261" departSpeed="12.574" speedFactor="0.9282" arrival="280.00">
        <route edges="E_in E_out"/>
    </vehicle>

    <vehicle id="flow_5_phase1_S_straight.13" type="moto" depart="234.00" departLane="1" departPos="43.1771" departSpeed="3.7936" speedFactor="1.2148" arrival="282.00">
        <route edges="S_in N_out"/>
    </vehicle>

    <vehicle id="flow_7_phase1_S_right.6" type="car" depart="265.00" departLane="1" departPos="127.7831" departSpeed="10.0967" speedFactor="1.1275" arrival="286.00">
        <route edges="S_in E_out"/>
    </vehicle>

    <vehicle id="flow_1_phase1_N_straight.13" type="truck" depart="239.00" departLane="1" departPos="0.9771" departSpeed="8.1046" speedFactor="0.9465" arrival="288.00">
        <route edges="N_in S_out"/>
    </vehicle>

    <vehicle id="flow_5_phase1_S_straight.14" type="car" depart="252.00" departLane="0" departPos="27.7577" departSpeed="9.4533" speedFactor="0.8047" arrival="288.00">
        <route edges="S_in N_out"/>
    </vehicle>

    <vehicle id="flow_1_phase1_N_straight.14" type="car" depart="257.00" departLane="0" departPos="7.5649" departSpeed="10.9682" speedFactor="0.9718" arrival="288.00">
        <route edges="N_in S_out"/>
    </vehicle>

    <vehicle id="flow_13_phase1_W_straight.14" type="moto" depart="255.00" departLane="1" departPos="22.618" departSpeed="0.229" speedFactor="1.1523" arrival="295.00">
        <route edges="W_in E_out"/>
    </vehicle>

    <vehicle id="flow_15_phase1_W_right.6" type="moto" depart="268.00" departLane="1" departPos="105.322" departSpeed="6.3545" speedFactor="1.0747" arrival="296.00">
        <route edges="W_in S_out"/>
    </vehicle>

    <vehicle id="flow_13_phase1_W_straight.15" type="car" depart="273.00" departLane="1" departPos="175.2569" departSpeed="4.7604" speedFactor="1.0262" arrival="296.00">
        <route edges="W_in E_out"/>
    </vehicle>

    <vehicle id="flow_8_phase1_S_uturn.3" type="bus" depart="269.00" departLane="1" departPos="177.2083" departSpeed="7.1302" speedFactor="0.9700" arrival="297.00">
        <route edges="S_in S_out"/>
    </vehicle>

    <vehicle id="flow_4_phase1_N_uturn.3" type="car" depart="269.00" departLane="0" departPos="49.1239" departSpeed="1.0962" speedFactor="0.9559" arrival="301.00">
        <route edges="W_in S_out"/>
    </vehicle>

    <vehicle id="flow_14_phase1_W_left.6" type="moto" depart="281.00" departLane="1" departPos="186.6454" departSpeed="2.9536" speedFactor="0.8697" arrival="302.00">
        <route edges="W_in N_out"/>
    </vehicle>

    <vehicle id="flow_9_phase1_E_straight.14" type="moto" depart="245.00" departLane="1" departPos="138.898" departSpeed="10.3457" speedFactor="0.8543" arrival="303.00">
        <route edges="E_in E_out"/>
    </vehicle>

    <vehicle id="flow_12_phase1_E_uturn.3" type="car" depart="268.00" departLane="0" departPos="103.1972" departSpeed="6.4661" speedFactor="0.8963" arrival="305.00">
        <route edges="E_in E_out"/>
    </vehicle>

    <vehicle id="flow_16_phase1_W_uturn.3" type="bus" depart="270.00" departLane="0" departPos="20.6867" departSpeed="3.8426" speedFactor="0.9363" arrival="309.00">
        <route edges="W_in W_out"/>
    </vehicle>

    <vehicle id="flow_3_phase1_N_right.6" type="truck" depart="279.00" departLane="0" departPos="182.8634" departSpeed="4.8678" speedFactor="0.9035" arrival="313.00">
        <route edges="N_in W_out"/>
    </vehicle>

    <vehicle id="flow_5_phase1_S_straight.15" type="container" depart="270.00" departLane="0" departPos="33.0225" departSpeed="8.2005" speedFactor="0.9628" arrival="316.00">
        <route edges="S_in N_out"/>
    </vehicle>

    <vehicle id="flow_1_phase1_N_straight.15" type="car" depart="276.00" departLane="0" departPos="79.4706" departSpeed="8.6445" speedFactor="0.9311" arrival="318.00">
        <route edges="N_in S_out"/>
    </vehicle>
