<?xml version="1.0" encoding="UTF-8"?>

<!-- generated on 2025-12-09 22:47:32 by Eclipse SUMO sumo Version 1.18.0
<configuration xmlns:xsi="http://www.w3.org/2001/XMLSchema-instance" xsi:noNamespaceSchemaLocation="http://sumo.dlr.de/xsd/sumoConfiguration.xsd">

    <input>
        <net-file value="nets/60p2k/net.net.xml"/>
        <route-files value="nets/60p2k/route_temp_566_135378486671152_42584019.rou.xml"/>
    </input>

    <output>
        <summary-output value="result_ddqn_1.4_0.1/summary_ep_5.xml"/>
        <tripinfo-output value="result_ddqn_1.4_0.1/tripinfo_ep_5.xml"/>
        <vehroute-output value="result_ddqn_1.4_0.1/vehroute_ep_5.xml"/>
    </output>

    <time>
        <begin value="0"/>
    </time>

    <report>
        <verbose value="true"/>
        <no-warnings value="true"/>
        <no-step-log value="true"/>
    </report>

    <traci_server>
        <remote-port value="34127"/>
    </traci_server>

    <gui_only>
        <gui-settings-file value="nets/60p2k/gui-settings.xml"/>
        <quit-on-end value="true"/>
    </gui_only>

</configuration>
-->

<routes xmlns:xsi="http://www.w3.org/2001/XMLSchema-instance" xsi:noNamespaceSchemaLocation="http://sumo.dlr.de/xsd/routes_file.xsd">
    <vehicle id="flow_8_phase1_S_uturn.0" type="moto" depart="0.00" departLane="0" departPos="120.1072" departSpeed="4.4837" speedFactor="1.0505" arrival="24.00">
        <route edges="S_in S_out"/>
    </vehicle>

    <vehicle id="flow_5_phase1_S_straight.0" type="moto" depart="0.00" departLane="1" departPos="107.3659" departSpeed="7.2113" speedFactor="1.1475" arrival="25.00">
        <route edges="S_in N_out"/>
    </vehicle>

    <vehicle id="flow_6_phase1_S_left.0" type="moto" depart="0.00" departLane="1" departPos="166.0107" departSpeed="0.7376" speedFactor="0.8806" arrival="25.00">
        <route edges="S_in W_out"/>
    </vehicle>

    <vehicle id="flow_4_phase1_N_uturn.0" type="car" depart="0.00" departLane="1" departPos="127.6015" departSpeed="0.0774" speedFactor="0.9228" arrival="32.00">
        <route edges="N_in N_out"/>
    </vehicle>

    <vehicle id="flow_16_phase1_W_uturn.0" type="moto" depart="0.00" departLane="1" departPos="126.6766" departSpeed="1.2848" speedFactor="1.0383" arrival="38.00">
        <route edges="W_in W_out"/>
    </vehicle>

    <vehicle id="flow_15_phase1_W_right.0" type="moto" depart="0.00" departLane="0" departPos="45.7673" departSpeed="2.6276" speedFactor="0.8472" arrival="39.00">
        <route edges="W_in S_out"/>
    </vehicle>

    <vehicle id="flow_9_phase1_E_straight.0" type="truck" depart="0.00" departLane="0" departPos="168.2937" departSpeed="9.8263" speedFactor="0.8990" arrival="41.00">
        <route edges="E_in W_out"/>
    </vehicle>

    <vehicle id="flow_14_phase1_W_left.0" type="moto" depart="0.00" departLane="1" departPos="182.8773" departSpeed="5.6108" speedFactor="1.0101" arrival="41.00">
        <route edges="W_in N_out"/>
    </vehicle>

    <vehicle id="flow_11_phase1_E_right.0" type="bus" depart="0.00" departLane="1" departPos="144.9496" departSpeed="4.0187" speedFactor="0.9581" arrival="42.00">
        <route edges="E_in N_out"/>
    </vehicle>

    <vehicle id="flow_13_phase1_W_straight.0" type="container" depart="0.00" departLane="0" departPos="24.5296" departSpeed="3.7887" speedFactor="0.8227" arrival="43.00">
        <route edges="W_in E_out"/>
    </vehicle>

    <vehicle id="flow_3_phase1_N_right.0" type="car" depart="0.00" departLane="0" departPos="103.3842" departSpeed="3.7523" speedFactor="1.0907" arrival="45.00">
        <route edges="W_in N_out"/>
    </vehicle>

    <vehicle id="flow_5_phase1_S_straight.1" type="moto" depart="18.00" departLane="0" departPos="131.129" departSpeed="9.5396" speedFactor="1.1582" arrival="48.00">
        <route edges="S_in N_out"/>
    </vehicle>

    <vehicle id="flow_10_phase1_E_left.0" type="truck" depart="0.00" departLane="0" departPos="44.8816" departSpeed="7.6878" speedFactor="1.0161" arrival="49.00">
        <route edges="E_in S_out"/>
    </vehicle>

    <vehicle id="flow_1_phase1_N_straight.1" type="moto" depart="19.00" departLane="1" departPos="31.9285" departSpeed="9.2811" speedFactor="1.1853" arrival="52.00">
        <route edges="N_in S_out"/>
    </vehicle>

    <vehicle id="flow_2_phase1_N_left.0" type="moto" depart="0.00" departLane="1" departPos="8.2688" departSpeed="8.3291" speedFactor="1.0157" arrival="53.00">
        <route edges="N_in E_out"/>
    </vehicle>

    <vehicle id="flow_1_phase1_N_straight.0" type="bus" depart="0.00" departLane="0" departPos="8.6229" departSpeed="8.5053" speedFactor="0.8588" arrival="55.00">
        <route edges="N_in S_out"/>
    </vehicle>

    <vehicle id="flow_7_phase1_S_right.0" type="container" depart="0.00" departLane="0" departPos="8.759" departSpeed="8.0654" speedFactor="0.8488" arrival="57.00">
        <route edges="S_in E_out"/>
    </vehicle>

    <vehicle id="flow_13_phase1_W_straight.1" type="car" depart="19.00" departLane="1" departPos="121.6549" departSpeed="2.8591" speedFactor="1.1218" arrival="61.00">
        <route edges="W_in E_out"/>
    </vehicle>

    <vehicle id="flow_13_phase1_W_straight.2" type="moto" depart="37.00" departLane="1" departPos="107.5311" departSpeed="1.1094" speedFactor="0.9279" arrival="63.00">
        <route edges="W_in E_out"/>
    </vehicle>

    <vehicle id="flow_9_phase1_E_straight.1" type="moto" depart="18.00" departLane="1" departPos="58.3562" departSpeed="11.6446" speedFactor="0.8727" arrival="65.00">
        <route edges="E_in W_out"/>
    </vehicle>

    <vehicle id="flow_12_phase1_E_uturn.0" type="moto" depart="0.00" departLane="0" departPos="5.6544" departSpeed="13.7593" speedFactor="1.0348" arrival="66.00">
        <route edges="E_in E_out"/>
    </vehicle>

    <vehicle id="flow_9_phase1_E_straight.2" type="moto" depart="35.00" departLane="1" departPos="52.8684" departSpeed="0.3845" speedFactor="0.9938" arrival="67.00">
        <route edges="E_in W_out"/>
    </vehicle>

    <vehicle id="flow_11_phase1_E_right.1" type="moto" depart="45.00" departLane="1" departPos="128.6773" departSpeed="3.0596" speedFactor="1.0365" arrival="69.00">
        <route edges="E_in N_out"/>
    </vehicle>

    <vehicle id="flow_15_phase1_W_right.1" type="moto" depart="45.00" departLane="0" departPos="73.8966" departSpeed="9.2239" speedFactor="1.0788" arrival="70.00">
        <route edges="W_in S_out"/>
    </vehicle>

    <vehicle id="flow_3_phase1_N_right.1" type="moto" depart="47.00" departLane="0" departPos="166.0021" departSpeed="1.2818" speedFactor="0.8806" arrival="72.00">
        <route edges="W_in N_out"/>
    </vehicle>

    <vehicle id="flow_5_phase1_S_straight.2" type="moto" depart="36.00" departLane="1" departPos="12.6982" departSpeed="12.4143" speedFactor="0.9623" arrival="75.00">
        <route edges="S_in N_out"/>
    </vehicle>

    <vehicle id="flow_1_phase1_N_straight.2" type="bus" depart="37.00" departLane="1" departPos="59.5081" departSpeed="13.3195" speedFactor="0.9657" arrival="80.00">
        <route edges="N_in S_out"/>
    </vehicle>

    <vehicle id="flow_5_phase1_S_straight.3" type="moto" depart="54.00" departLane="0" departPos="56.1823" departSpeed="8.583" speedFactor="1.0764" arrival="80.00">
        <route edges="S_in N_out"/>
    </vehicle>

    <vehicle id="flow_2_phase1_N_left.1" type="moto" depart="45.00" departLane="0" departPos="8.8817" departSpeed="2.8196" speedFactor="1.1228" arrival="83.00">
        <route edges="N_in E_out"/>
    </vehicle>

    <vehicle id="flow_7_phase1_S_right.1" type="container" depart="45.00" departLane="1" departPos="66.71" departSpeed="7.8717" speedFactor="0.7845" arrival="83.00">
        <route edges="S_in E_out"/>
    </vehicle>

    <vehicle id="flow_6_phase1_S_left.1" type="moto" depart="46.00" departLane="1" departPos="110.9191" departSpeed="11.9947" speedFactor="1.0453" arrival="85.00">
        <route edges="S_in W_out"/>
    </vehicle>

    <vehicle id="flow_13_phase1_W_straight.3" type="moto" depart="55.00" departLane="0" departPos="132.6219" departSpeed="5.486" speedFactor="1.2027" arrival="88.00">
        <route edges="W_in E_out"/>
    </vehicle>

    <vehicle id="flow_9_phase1_E_straight.3" type="bus" depart="53.00" departLane="0" departPos="86.4153" departSpeed="8.4123" speedFactor="0.8515" arrival="95.00">
        <route edges="E_in W_out"/>
    </vehicle>

    <vehicle id="flow_1_phase1_N_straight.3" type="car" depart="56.00" departLane="0" departPos="125.4807" departSpeed="6.7924" speedFactor="1.0479" arrival="95.00">
        <route edges="N_in S_out"/>
    </vehicle>

    <vehicle id="flow_9_phase1_E_straight.4" type="bus" depart="70.00" departLane="1" departPos="135.0364" departSpeed="3.7231" speedFactor="0.9525" arrival="98.00">
        <route edges="E_in W_out"/>
    </vehicle>

    <vehicle id="flow_10_phase1_E_left.1" type="truck" depart="46.00" departLane="1" departPos="4.5211" departSpeed="3.8907" speedFactor="0.7665" arrival="100.00">
        <route edges="E_in S_out"/>
    </vehicle>

    <vehicle id="flow_13_phase1_W_straight.4" type="bus" depart="73.00" departLane="0" departPos="91.0122" departSpeed="4.4892" speedFactor="0.8691" arrival="102.00">
        <route edges="W_in E_out"/>
    </vehicle>

    <vehicle id="flow_14_phase1_W_left.1" type="container" depart="47.00" departLane="0" departPos="93.4122" departSpeed="7.0397" speedFactor="0.9146" arrival="110.00">
        <route edges="W_in N_out"/>
    </vehicle>

    <vehicle id="flow_1_phase1_N_straight.5" type="moto" depart="92.00" departLane="1" departPos="177.4982" departSpeed="6.1115" speedFactor="0.9020" arrival="112.00">
        <route edges="N_in S_out"/>
    </vehicle>

    <vehicle id="flow_1_phase1_N_straight.4" type="truck" depart="74.00" departLane="0" departPos="128.0429" departSpeed="4.9925" speedFactor="0.9194" arrival="116.00">
        <route edges="N_in S_out"/>
    </vehicle>

    <vehicle id="flow_7_phase1_S_right.2" type="moto" depart="89.00" departLane="0" departPos="52.573" departSpeed="9.361" speedFactor="1.1432" arrival="116.00">
        <route edges="S_in E_out"/>
    </vehicle>

    <vehicle id="flow_5_phase1_S_straight.5" type="moto" depart="90.00" departLane="0" departPos="104.1356" departSpeed="10.862" speedFactor="0.9517" arrival="116.00">
        <route edges="S_in N_out"/>
    </vehicle>

    <vehicle id="flow_8_phase1_S_uturn.1" type="moto" depart="90.00" departLane="1" departPos="168.2148" departSpeed="11.6281" speedFactor="0.8882" arrival="116.00">
        <route edges="S_in S_out"/>
    </vehicle>

    <vehicle id="flow_6_phase1_S_left.2" type="moto" depart="91.00" departLane="1" departPos="92.2234" departSpeed="0.173" speedFactor="1.0668" arrival="118.00">
        <route edges="S_in W_out"/>
    </vehicle>

    <vehicle id="flow_5_phase1_S_straight.4" type="container" depart="72.00" departLane="0" departPos="26.7631" departSpeed="9.623" speedFactor="0.9706" arrival="119.00">
        <route edges="S_in N_out"/>
    </vehicle>

    <vehicle id="flow_11_phase1_E_right.2" type="emergency" depart="89.00" departLane="1" departPos="112.3734" departSpeed="10.3998" speedFactor="1.0989" arrival="122.00">
        <route edges="E_in N_out"/>
    </vehicle>

    <vehicle id="flow_4_phase1_N_uturn.1" type="truck" depart="90.00" departLane="1" departPos="162.4039" departSpeed="1.3436" speedFactor="0.9396" arrival="123.00">
        <route edges="N_in N_out"/>
    </vehicle>

    <vehicle id="flow_15_phase1_W_right.2" type="moto" depart="90.00" departLane="1" departPos="89.1662" departSpeed="11.3855" speedFactor="1.0265" arrival="123.00">
        <route edges="W_in S_out"/>
    </vehicle>

    <vehicle id="flow_9_phase1_E_straight.5" type="moto" depart="88.00" departLane="1" departPos="29.1154" departSpeed="12.0849" speedFactor="1.0283" arrival="124.00">
        <route edges="E_in W_out"/>
    </vehicle>

    <vehicle id="flow_13_phase1_W_straight.5" type="moto" depart="91.00" departLane="1" departPos="74.602" departSpeed="11.8331" speedFactor="1.0390" arrival="126.00">
        <route edges="W_in E_out"/>
    </vehicle>

    <vehicle id="flow_12_phase1_E_uturn.1" type="moto" depart="90.00" departLane="0" departPos="31.7588" departSpeed="11.7707" speedFactor="0.9374" arrival="127.00">
        <route edges="E_in E_out"/>
    </vehicle>

    <vehicle id="flow_10_phase1_E_left.2" type="moto" depart="91.00" departLane="1" departPos="21.6793" departSpeed="6.5338" speedFactor="1.1413" arrival="127.00">
        <route edges="E_in S_out"/>
    </vehicle>

    <vehicle id="flow_9_phase1_E_straight.6" type="moto" depart="105.00" departLane="1" departPos="137.1078" departSpeed="4.5869" speedFactor="1.0203" arrival="129.00">
        <route edges="E_in W_out"/>
    </vehicle>

    <vehicle id="flow_3_phase1_N_right.2" type="moto" depart="93.00" departLane="1" departPos="159.9604" departSpeed="7.1052" speedFactor="1.1043" arrival="133.00">
        <route edges="W_in N_out"/>
    </vehicle>

    <vehicle id="flow_5_phase1_S_straight.6" type="moto" depart="108.00" departLane="1" departPos="152.0111" departSpeed="5.5953" speedFactor="1.0983" arrival="136.00">
        <route edges="S_in N_out"/>
    </vehicle>

    <vehicle id="flow_2_phase1_N_left.2" type="moto" depart="89.00" departLane="0" departPos="125.7621" departSpeed="4.7721" speedFactor="0.9964" arrival="141.00">
        <route edges="N_in E_out"/>
    </vehicle>

    <vehicle id="flow_1_phase1_N_straight.6" type="car" depart="111.00" departLane="0" departPos="18.5245" departSpeed="1.5615" speedFactor="0.9797" arrival="143.00">
        <route edges="N_in S_out"/>
    </vehicle>

    <vehicle id="flow_13_phase1_W_straight.6" type="car" depart="109.00" departLane="0" departPos="24.5526" departSpeed="7.8618" speedFactor="0.9759" arrival="151.00">
        <route edges="W_in E_out"/>
    </vehicle>

    <vehicle id="flow_9_phase1_E_straight.7" type="moto" depart="123.00" departLane="1" departPos="37.0366" departSpeed="3.1926" speedFactor="1.0085" arrival="152.00">
        <route edges="E_in W_out"/>
    </vehicle>

    <vehicle id="flow_15_phase1_W_right.3" type="moto" depart="134.00" departLane="1" departPos="86.4019" departSpeed="1.9109" speedFactor="1.1705" arrival="160.00">
        <route edges="W_in S_out"/>
    </vehicle>

    <vehicle id="flow_16_phase1_W_uturn.1" type="truck" depart="90.00" departLane="1" departPos="124.8757" departSpeed="0.0106" speedFactor="0.8923" arrival="161.00">
        <route edges="W_in W_out"/>
    </vehicle>

    <vehicle id="flow_14_phase1_W_left.2" type="car" depart="94.00" departLane="1" departPos="29.0743" departSpeed="2.5887" speedFactor="0.8975" arrival="162.00">
        <route edges="W_in N_out"/>
    </vehicle>

    <vehicle id="flow_11_phase1_E_right.3" type="moto" depart="133.00" departLane="0" departPos="107.9927" departSpeed="0.9794" speedFactor="0.8330" arrival="163.00">
        <route edges="E_in N_out"/>
    </vehicle>

    <vehicle id="flow_13_phase1_W_straight.7" type="moto" depart="128.00" departLane="0" departPos="36.1232" departSpeed="5.1819" speedFactor="0.8003" arrival="164.00">
        <route edges="W_in E_out"/>
    </vehicle>

    <vehicle id="flow_10_phase1_E_left.3" type="truck" depart="137.00" departLane="1" departPos="140.1205" departSpeed="11.738" speedFactor="1.0651" arrival="166.00">
        <route edges="E_in S_out"/>
    </vehicle>

    <vehicle id="flow_9_phase1_E_straight.8" type="moto" depart="140.00" departLane="1" departPos="109.812" departSpeed="6.8921" speedFactor="0.9385" arrival="168.00">
        <route edges="E_in W_out"/>
    </vehicle>

    <vehicle id="flow_3_phase1_N_right.3" type="moto" depart="140.00" departLane="1" departPos="74.7856" departSpeed="2.548" speedFactor="0.9618" arrival="169.00">
        <route edges="W_in N_out"/>
    </vehicle>

    <vehicle id="flow_7_phase1_S_right.3" type="moto" depart="133.00" departLane="1" departPos="150.3544" departSpeed="8.4424" speedFactor="1.0682" arrival="171.00">
        <route edges="S_in E_out"/>
    </vehicle>

    <vehicle id="flow_5_phase1_S_straight.8" type="emergency" depart="144.00" departLane="0" departPos="35.6434" departSpeed="3.6539" speedFactor="1.1380" arrival="172.00">
        <route edges="S_in N_out"/>
    </vehicle>

    <vehicle id="flow_1_phase1_N_straight.7" type="moto" depart="129.00" departLane="1" departPos="41.8299" departSpeed="13.8944" speedFactor="1.0626" arrival="173.00">
        <route edges="N_in S_out"/>
    </vehicle>

    <vehicle id="flow_1_phase1_N_straight.8" type="moto" depart="147.00" departLane="0" departPos="157.0309" departSpeed="10.2924" speedFactor="0.9730" arrival="176.00">
        <route edges="N_in S_out"/>
    </vehicle>

    <vehicle id="flow_6_phase1_S_left.3" type="car" depart="137.00" departLane="1" departPos="16.1283" departSpeed="8.9746" speedFactor="1.0972" arrival="177.00">
        <route edges="S_in W_out"/>
    </vehicle>

    <vehicle id="flow_5_phase1_S_straight.7" type="bus" depart="126.00" departLane="1" departPos="47.4954" departSpeed="4.0315" speedFactor="0.9040" arrival="178.00">
        <route edges="S_in N_out"/>
    </vehicle>

    <vehicle id="flow_2_phase1_N_left.3" type="moto" depart="134.00" departLane="0" departPos="140.508" departSpeed="9.25" speedFactor="0.8878" arrival="183.00">
        <route edges="N_in E_out"/>
    </vehicle>

    <vehicle id="flow_5_phase1_S_straight.9" type="moto" depart="162.00" departLane="1" departPos="109.1161" departSpeed="3.3873" speedFactor="1.2976" arrival="183.00">
        <route edges="S_in N_out"/>
    </vehicle>

    <vehicle id="flow_9_phase1_E_straight.10" type="moto" depart="175.00" departLane="1" departPos="150.7313" departSpeed="0.6133" speedFactor="1.1157" arrival="195.00">
        <route edges="E_in W_out"/>
    </vehicle>

    <vehicle id="flow_13_phase1_W_straight.8" type="moto" depart="146.00" departLane="1" departPos="84.7431" departSpeed="3.8254" speedFactor="1.0413" arrival="196.00">
        <route edges="W_in E_out"/>
    </vehicle>

    <vehicle id="flow_9_phase1_E_straight.9" type="truck" depart="158.00" departLane="1" departPos="69.3051" departSpeed="13.0559" speedFactor="1.0019" arrival="201.00">
        <route edges="E_in W_out"/>
    </vehicle>

    <vehicle id="flow_15_phase1_W_right.4" type="bus" depart="179.00" departLane="0" departPos="169.4272" departSpeed="11.8004" speedFactor="0.9032" arrival="201.00">
        <route edges="W_in S_out"/>
    </vehicle>

    <vehicle id="flow_13_phase1_W_straight.10" type="moto" depart="182.00" departLane="0" departPos="123.2337" departSpeed="13.3863" speedFactor="1.1421" arrival="201.00">
        <route edges="W_in E_out"/>
    </vehicle>

    <vehicle id="flow_14_phase1_W_left.3" type="moto" depart="141.00" departLane="0" departPos="42.0768" departSpeed="8.2474" speedFactor="1.0873" arrival="202.00">
        <route edges="W_in N_out"/>
    </vehicle>

    <vehicle id="flow_11_phase1_E_right.4" type="container" depart="177.00" departLane="0" departPos="151.0147" departSpeed="9.8587" speedFactor="1.0240" arrival="203.00">
        <route edges="E_in N_out"/>
    </vehicle>

    <vehicle id="flow_13_phase1_W_straight.9" type="moto" depart="164.00" departLane="1" departPos="5.9732" departSpeed="0.3678" speedFactor="0.8391" arrival="207.00">
        <route edges="W_in E_out"/>
    </vehicle>

    <vehicle id="flow_12_phase1_E_uturn.2" type="bus" depart="179.00" departLane="1" departPos="123.8246" departSpeed="4.1314" speedFactor="0.9315" arrival="209.00">
        <route edges="E_in E_out"/>
    </vehicle>

    <vehicle id="flow_7_phase1_S_right.4" type="moto" depart="177.00" departLane="0" departPos="96.1141" departSpeed="7.8236" speedFactor="0.9645" arrival="210.00">
        <route edges="S_in E_out"/>
    </vehicle>

    <vehicle id="flow_1_phase1_N_straight.9" type="truck" depart="166.00" departLane="0" departPos="65.0172" departSpeed="2.7144" speedFactor="0.9670" arrival="213.00">
        <route edges="N_in S_out"/>
    </vehicle>

    <vehicle id="flow_4_phase1_N_uturn.2" type="car" depart="180.00" departLane="1" departPos="173.8291" departSpeed="0.6961" speedFactor="1.0323" arrival="214.00">
        <route edges="N_in N_out"/>
    </vehicle>

    <vehicle id="flow_5_phase1_S_straight.10" type="moto" depart="180.00" departLane="1" departPos="67.694" departSpeed="0.1585" speedFactor="1.0281" arrival="215.00">
        <route edges="S_in N_out"/>
    </vehicle>

    <vehicle id="flow_2_phase1_N_left.4" type="moto" depart="178.00" departLane="1" departPos="64.7255" departSpeed="6.1591" speedFactor="1.1571" arrival="216.00">
        <route edges="N_in E_out"/>
    </vehicle>

    <vehicle id="flow_1_phase1_N_straight.10" type="bus" depart="184.00" departLane="1" departPos="95.9942" departSpeed="3.4529" speedFactor="1.0325" arrival="218.00">
        <route edges="N_in S_out"/>
    </vehicle>

    <vehicle id="flow_8_phase1_S_uturn.2" type="moto" depart="179.00" departLane="0" departPos="29.1188" departSpeed="4.0371" speedFactor="0.9897" arrival="219.00">
        <route edges="S_in S_out"/>
    </vehicle>

    <vehicle id="flow_6_phase1_S_left.4" type="moto" depart="182.00" departLane="0" departPos="109.2982" departSpeed="0.3843" speedFactor="1.0387" arrival="221.00">
        <route edges="S_in W_out"/>
    </vehicle>

    <vehicle id="flow_9_phase1_E_straight.11" type="moto" depart="193.00" departLane="0" departPos="172.0661" departSpeed="10.3443" speedFactor="1.0448" arrival="222.00">
        <route edges="E_in W_out"/>
    </vehicle>

    <vehicle id="flow_10_phase1_E_left.4" type="moto" depart="182.00" departLane="0" departPos="34.8311" departSpeed="5.5356" speedFactor="1.0039" arrival="226.00">
        <route edges="E_in S_out"/>
    </vehicle>

    <vehicle id="flow_16_phase1_W_uturn.2" type="car" depart="180.00" departLane="1" departPos="140.3456" departSpeed="9.5256" speedFactor="0.8850" arrival="228.00">
        <route edges="W_in W_out"/>
    </vehicle>

    <vehicle id="flow_13_phase1_W_straight.11" type="moto" depart="200.00" departLane="1" departPos="60.9644" departSpeed="13.4978" speedFactor="1.0140" arrival="228.00">
        <route edges="W_in E_out"/>
    </vehicle>

    <vehicle id="flow_9_phase1_E_straight.12" type="moto" depart="210.00" departLane="1" departPos="162.1669" departSpeed="13.809" speedFactor="1.0047" arrival="229.00">
        <route edges="E_in W_out"/>
    </vehicle>

    <vehicle id="flow_3_phase1_N_right.4" type="moto" depart="186.00" departLane="1" departPos="170.8427" departSpeed="4.3757" speedFactor="1.0387" arrival="232.00">
        <route edges="W_in N_out"/>
    </vehicle>

    <vehicle id="flow_5_phase1_S_straight.11" type="bus" depart="198.00" departLane="0" departPos="3.1111" departSpeed="8.2181" speedFactor="0.9784" arrival="239.00">
        <route edges="S_in N_out"/>
    </vehicle>

    <vehicle id="flow_1_phase1_N_straight.11" type="truck" depart="202.00" departLane="1" departPos="66.1547" departSpeed="10.8254" speedFactor="0.9137" arrival="239.00">
        <route edges="N_in S_out"/>
    </vehicle>

    <vehicle id="flow_7_phase1_S_right.5" type="truck" depart="221.00" departLane="1" departPos="170.5857" departSpeed="9.2533" speedFactor="1.0532" arrival="240.00">
        <route edges="S_in E_out"/>
    </vehicle>

    <vehicle id="flow_1_phase1_N_straight.12" type="truck" depart="221.00" departLane="0" departPos="169.1917" departSpeed="9.4173" speedFactor="0.9615" arrival="241.00">
        <route edges="N_in S_out"/>
    </vehicle>

    <vehicle id="flow_5_phase1_S_straight.12" type="moto" depart="216.00" departLane="1" departPos="11.9624" departSpeed="0.8453" speedFactor="1.0699" arrival="246.00">
        <route edges="S_in N_out"/>
    </vehicle>

    <vehicle id="flow_11_phase1_E_right.5" type="moto" depart="221.00" departLane="0" departPos="128.7404" departSpeed="4.1812" speedFactor="1.2552" arrival="256.00">
        <route edges="E_in N_out"/>
    </vehicle>

    <vehicle id="flow_2_phase1_N_left.5" type="car" depart="222.00" departLane="0" departPos="28.3376" departSpeed="10.0561" speedFactor="0.8868" arrival="256.00">
        <route edges="N_in E_out"/>
    </vehicle>

    <vehicle id="flow_13_phase1_W_straight.12" type="moto" depart="218.00" departLane="1" departPos="102.4537" departSpeed="0.6809" speedFactor="1.1365" arrival="257.00">
        <route edges="W_in E_out"/>
    </vehicle>

    <vehicle id="flow_9_phase1_E_straight.13" type="moto" depart="228.00" departLane="0" departPos="170.7684" departSpeed="5.4556" speedFactor="0.9282" arrival="259.00">
        <route edges="E_in W_out"/>
    </vehicle>

    <vehicle id="flow_15_phase1_W_right.5" type="car" depart="223.00" departLane="1" departPos="21.3277" departSpeed="6.8775" speedFactor="0.9653" arrival="260.00">
        <route edges="W_in S_out"/>
    </vehicle>

    <vehicle id="flow_13_phase1_W_straight.13" type="moto" depart="237.00" departLane="0" departPos="114.397" departSpeed="12.033" speedFactor="0.8917" arrival="263.00">
        <route edges="W_in E_out"/>
    </vehicle>

    <vehicle id="flow_10_phase1_E_left.5" type="moto" depart="228.00" departLane="1" departPos="167.1176" departSpeed="0.9094" speedFactor="1.0856" arrival="264.00">
        <route edges="E_in S_out"/>
    </vehicle>

    <vehicle id="flow_14_phase1_W_left.4" type="bus" depart="188.00" departLane="0" departPos="108.1488" departSpeed="7.8982" speedFactor="0.8196" arrival="268.00">
        <route edges="W_in N_out"/>
    </vehicle>

    <vehicle id="flow_5_phase1_S_straight.13" type="moto" depart="234.00" departLane="1" departPos="50.8725" departSpeed="7.1685" speedFactor="1.2148" arrival="270.00">
        <route edges="S_in N_out"/>
    </vehicle>

    <vehicle id="flow_3_phase1_N_right.5" type="moto" depart="232.00" departLane="0" departPos="98.6919" departSpeed="1.5056" speedFactor="0.9059" arrival="271.00">
        <route edges="W_in N_out"/>
    </vehicle>

    <vehicle id="flow_1_phase1_N_straight.13" type="truck" depart="239.00" departLane="1" departPos="120.4896" departSpeed="13.029" speedFactor="0.9465" arrival="275.00">
        <route edges="N_in S_out"/>
    </vehicle>

    <vehicle id="flow_6_phase1_S_left.5" type="bus" depart="227.00" departLane="1" departPos="38.4375" departSpeed="1.1216" speedFactor="0.9819" arrival="282.00">
        <route edges="S_in W_out"/>
    </vehicle>

    <vehicle id="flow_5_phase1_S_straight.14" type="car" depart="252.00" departLane="1" departPos="138.898" departSpeed="9.7451" speedFactor="0.8047" arrival="282.00">
        <route edges="S_in N_out"/>
    </vehicle>

    <vehicle id="flow_7_phase1_S_right.6" type="car" depart="265.00" departLane="0" departPos="184.144" departSpeed="0.822" speedFactor="1.1275" arrival="282.00">
        <route edges="S_in E_out"/>
    </vehicle>

    <vehicle id="flow_5_phase1_S_straight.15" type="container" depart="270.00" departLane="1" departPos="177.2083" departSpeed="12.4108" speedFactor="0.9628" arrival="287.00">
        <route edges="S_in N_out"/>
    </vehicle>

    <vehicle id="flow_1_phase1_N_straight.14" type="car" depart="257.00" departLane="1" departPos="22.618" departSpeed="0.1933" speedFactor="0.9718" arrival="289.00">
        <route edges="N_in S_out"/>
    </vehicle>

    <vehicle id="flow_13_phase1_W_straight.14" type="moto" depart="255.00" departLane="0" departPos="27.7577" departSpeed="13.5225" speedFactor="1.1523" arrival="293.00">
        <route edges="W_in E_out"/>
    </vehicle>

    <vehicle id="flow_15_phase1_W_right.6" type="moto" depart="268.00" departLane="0" departPos="99.1978" departSpeed="7.7531" speedFactor="1.0747" arrival="294.00">
        <route edges="W_in S_out"/>
    </vehicle>

    <vehicle id="flow_11_phase1_E_right.6" type="car" depart="265.00" departLane="1" departPos="127.7831" departSpeed="8.8099" speedFactor="0.9838" arrival="296.00">
        <route edges="E_in N_out"/>
    </vehicle>

    <vehicle id="flow_9_phase1_E_straight.14" type="moto" depart="245.00" departLane="1" departPos="0.9771" departSpeed="7.3151" speedFactor="0.8543" arrival="297.00">
        <route edges="E_in W_out"/>
    </vehicle>

    <vehicle id="flow_12_phase1_E_uturn.3" type="car" depart="268.00" departLane="1" departPos="80.4314" departSpeed="10.128" speedFactor="0.8963" arrival="298.00">
        <route edges="E_in E_out"/>
    </vehicle>

    <vehicle id="flow_13_phase1_W_straight.15" type="car" depart="273.00" departLane="1" departPos="164.3932" departSpeed="3.5149" speedFactor="1.0262" arrival="298.00">
        <route edges="W_in E_out"/>
    </vehicle>

    <vehicle id="flow_9_phase1_E_straight.15" type="bus" depart="263.00" departLane="0" departPos="7.5649" departSpeed="9.949" speedFactor="0.8815" arrival="300.00">
        <route edges="E_in W_out"/>
    </vehicle>

    <vehicle id="flow_10_phase1_E_left.6" type="bus" depart="273.00" departLane="0" departPos="53.9093" departSpeed="11.0539" speedFactor="0.9234" arrival="305.00">
        <route edges="E_in S_out"/>
    </vehicle>

    <vehicle id="flow_14_phase1_W_left.5" type="bus" depart="234.00" departLane="1" departPos="43.1771" departSpeed="3.1487" speedFactor="0.9554" arrival="309.00">
        <route edges="W_in N_out"/>
    </vehicle>

    <vehicle id="flow_1_phase1_N_straight.15" type="car" depart="276.00" departLane="0" departPos="135.4921" departSpeed="5.0316" speedFactor="0.9311" arrival="309.00">
        <route edges="N_in S_out"/>
    </vehicle>

    <vehicle id="flow_1_phase1_N_straight.16" type="moto" depart="294.00" departLane="0" departPos="153.1849" departSpeed="3.4841" speedFactor="1.0821" arrival="313.00">
        <route edges="N_in S_out"/>
    </vehicle>

    <vehicle id="flow_4_phase1_N_uturn.3" type="car" depart="269.00" departLane="1" departPos="105.322" departSpeed="1.9948" speedFactor="0.9559" arrival="319.00">
        <route edges="N_in N_out"/>
    </vehicle>
