<?xml version="1.0" encoding="UTF-8"?>

<!-- generated on 2025-12-09 20:38:58 by Eclipse SUMO sumo Version 1.18.0
<configuration xmlns:xsi="http://www.w3.org/2001/XMLSchema-instance" xsi:noNamespaceSchemaLocation="http://sumo.dlr.de/xsd/sumoConfiguration.xsd">

    <input>
        <net-file value="nets/60p2k/net.net.xml"/>
        <route-files value="nets/60p2k/route_temp_26_124611776755504_93502079.rou.xml"/>
    </input>

    <output>
        <summary-output value="result_ddqn_1.0_0.1/summary_ep_7.xml"/>
        <tripinfo-output value="result_ddqn_1.0_0.1/tripinfo_ep_7.xml"/>
        <vehroute-output value="result_ddqn_1.0_0.1/vehroute_ep_7.xml"/>
    </output>

    <time>
        <begin value="0"/>
    </time>

    <report>
        <verbose value="true"/>
        <no-warnings value="true"/>
        <no-step-log value="true"/>
    </report>

    <traci_server>
        <remote-port value="49665"/>
    </traci_server>

    <gui_only>
        <gui-settings-file value="nets/60p2k/gui-settings.xml"/>
        <quit-on-end value="true"/>
    </gui_only>

</configuration>
-->

<tripinfos xmlns:xsi="http://www.w3.org/2001/XMLSchema-instance" xsi:noNamespaceSchemaLocation="http://sumo.dlr.de/xsd/tripinfo_file.xsd">
    <tripinfo id="flow_3_phase1_N_right.0" depart="0.00" departLane="N_in_0" departPos="103.38" departSpeed="3.75" departDelay="0.00" arrival="24.00" arrivalLane="W_out_0" arrivalPos="189.60" arrivalSpeed="14.93" duration="24.00" routeLength="284.85" waitingTime="0.00" waitingCount="0" stopTime="0.00" timeLoss="4.55" rerouteNo="0" devices="vehroute_flow_3_phase1_N_right.0 tripinfo_flow_3_phase1_N_right.0" vType="car" speedFactor="1.09" vaporized=""/>
    <tripinfo id="flow_8_phase1_S_uturn.0" depart="0.00" departLane="S_in_0" departPos="120.11" departSpeed="4.48" departDelay="0.00" arrival="24.00" arrivalLane="S_out_1" arrivalPos="189.60" arrivalSpeed="13.35" duration="24.00" routeLength="263.76" waitingTime="0.00" waitingCount="0" stopTime="0.00" timeLoss="4.87" rerouteNo="0" devices="vehroute_flow_8_phase1_S_uturn.0 tripinfo_flow_8_phase1_S_uturn.0" vType="moto" speedFactor="1.05" vaporized=""/>
    <tripinfo id="flow_6_phase1_S_left.0" depart="0.00" departLane="S_in_1" departPos="166.01" departSpeed="0.74" departDelay="0.00" arrival="25.00" arrivalLane="W_out_1" arrivalPos="189.60" arrivalSpeed="11.46" duration="25.00" routeLength="232.54" waitingTime="0.00" waitingCount="0" stopTime="0.00" timeLoss="4.38" rerouteNo="0" devices="vehroute_flow_6_phase1_S_left.0 tripinfo_flow_6_phase1_S_left.0" vType="moto" speedFactor="0.88" vaporized=""/>
    <tripinfo id="flow_5_phase1_S_straight.0" depart="0.00" departLane="S_in_1" departPos="107.37" departSpeed="7.21" departDelay="0.00" arrival="26.00" arrivalLane="W_out_1" arrivalPos="189.60" arrivalSpeed="14.02" duration="26.00" routeLength="291.18" waitingTime="0.00" waitingCount="0" stopTime="0.00" timeLoss="6.95" rerouteNo="0" devices="vehroute_flow_5_phase1_S_straight.0 tripinfo_flow_5_phase1_S_straight.0" vType="moto" speedFactor="1.15" vaporized=""/>
    <tripinfo id="flow_4_phase1_N_uturn.0" depart="0.00" departLane="N_in_1" departPos="127.60" departSpeed="0.08" departDelay="0.00" arrival="27.00" arrivalLane="N_out_1" arrivalPos="189.60" arrivalSpeed="11.91" duration="27.00" routeLength="256.27" waitingTime="0.00" waitingCount="0" stopTime="0.00" timeLoss="6.22" rerouteNo="0" devices="vehroute_flow_4_phase1_N_uturn.0 tripinfo_flow_4_phase1_N_uturn.0" vType="car" speedFactor="0.92" vaporized=""/>
    <tripinfo id="flow_14_phase1_W_left.0" depart="0.00" departLane="S_in_1" departPos="50.07" departSpeed="13.54" departDelay="0.00" arrival="29.00" arrivalLane="W_out_1" arrivalPos="189.60" arrivalSpeed="13.08" duration="29.00" routeLength="348.48" waitingTime="0.00" waitingCount="0" stopTime="0.00" timeLoss="2.93" rerouteNo="0" devices="vehroute_flow_14_phase1_W_left.0 tripinfo_flow_14_phase1_W_left.0" vType="moto" speedFactor="1.01" vaporized=""/>
    <tripinfo id="flow_2_phase1_N_left.0" depart="0.00" departLane="N_in_1" departPos="8.27" departSpeed="8.33" departDelay="0.00" arrival="31.00" arrivalLane="E_out_1" arrivalPos="189.60" arrivalSpeed="13.85" duration="31.00" routeLength="390.28" waitingTime="0.00" waitingCount="0" stopTime="0.00" timeLoss="2.61" rerouteNo="0" devices="vehroute_flow_2_phase1_N_left.0 tripinfo_flow_2_phase1_N_left.0" vType="moto" speedFactor="1.02" vaporized=""/>
    <tripinfo id="flow_12_phase1_E_uturn.0" depart="0.00" departLane="E_in_0" departPos="129.89" departSpeed="13.76" departDelay="0.00" arrival="35.00" arrivalLane="E_out_1" arrivalPos="189.60" arrivalSpeed="14.27" duration="35.00" routeLength="253.98" waitingTime="5.00" waitingCount="2" stopTime="0.00" timeLoss="16.28" rerouteNo="0" devices="vehroute_flow_12_phase1_E_uturn.0 tripinfo_flow_12_phase1_E_uturn.0" vType="moto" speedFactor="1.03" vaporized=""/>
    <tripinfo id="flow_16_phase1_W_uturn.0" depart="0.00" departLane="W_in_0" departPos="126.68" departSpeed="11.71" departDelay="0.00" arrival="36.00" arrivalLane="W_out_1" arrivalPos="189.60" arrivalSpeed="14.02" duration="36.00" routeLength="257.19" waitingTime="10.00" waitingCount="1" stopTime="0.00" timeLoss="16.26" rerouteNo="0" devices="vehroute_flow_16_phase1_W_uturn.0 tripinfo_flow_16_phase1_W_uturn.0" vType="moto" speedFactor="1.04" vaporized=""/>
    <tripinfo id="flow_15_phase1_W_right.0" depart="0.00" departLane="W_in_1" departPos="108.38" departSpeed="1.98" departDelay="0.00" arrival="39.00" arrivalLane="S_out_0" arrivalPos="189.60" arrivalSpeed="11.14" duration="39.00" routeLength="279.85" waitingTime="5.00" waitingCount="1" stopTime="0.00" timeLoss="13.67" rerouteNo="0" devices="vehroute_flow_15_phase1_W_right.0 tripinfo_flow_15_phase1_W_right.0" vType="moto" speedFactor="0.85" vaporized=""/>
    <tripinfo id="flow_9_phase1_E_straight.0" depart="0.00" departLane="E_in_0" departPos="168.29" departSpeed="9.83" departDelay="0.00" arrival="41.00" arrivalLane="W_out_0" arrivalPos="189.60" arrivalSpeed="12.31" duration="41.00" routeLength="231.71" waitingTime="11.00" waitingCount="1" stopTime="0.00" timeLoss="21.81" rerouteNo="0" devices="vehroute_flow_9_phase1_E_straight.0 tripinfo_flow_9_phase1_E_straight.0" vType="truck" speedFactor="0.90" vaporized=""/>
    <tripinfo id="flow_13_phase1_W_straight.0" depart="0.00" departLane="W_in_0" departPos="23.77" departSpeed="1.48" departDelay="0.00" arrival="41.00" arrivalLane="E_out_0" arrivalPos="189.60" arrivalSpeed="10.91" duration="41.00" routeLength="376.23" waitingTime="0.00" waitingCount="0" stopTime="0.00" timeLoss="7.54" rerouteNo="0" devices="vehroute_flow_13_phase1_W_straight.0 tripinfo_flow_13_phase1_W_straight.0" vType="container" speedFactor="0.82" vaporized=""/>
    <tripinfo id="flow_11_phase1_E_right.0" depart="0.00" departLane="E_in_1" departPos="144.95" departSpeed="4.02" departDelay="0.00" arrival="42.00" arrivalLane="N_out_0" arrivalPos="189.60" arrivalSpeed="12.61" duration="42.00" routeLength="243.28" waitingTime="9.00" waitingCount="1" stopTime="0.00" timeLoss="22.05" rerouteNo="0" devices="vehroute_flow_11_phase1_E_right.0 tripinfo_flow_11_phase1_E_right.0" vType="bus" speedFactor="0.96" vaporized=""/>
    <tripinfo id="flow_10_phase1_E_left.0" depart="0.00" departLane="E_in_0" departPos="44.88" departSpeed="7.69" departDelay="0.00" arrival="47.00" arrivalLane="S_out_1" arrivalPos="189.60" arrivalSpeed="13.63" duration="47.00" routeLength="353.67" waitingTime="3.00" waitingCount="2" stopTime="0.00" timeLoss="20.81" rerouteNo="0" devices="vehroute_flow_10_phase1_E_left.0 tripinfo_flow_10_phase1_E_left.0" vType="truck" speedFactor="1.02" vaporized=""/>
    <tripinfo id="flow_1_phase1_N_straight.0" depart="0.00" departLane="N_in_0" departPos="8.62" departSpeed="8.51" departDelay="0.00" arrival="56.00" arrivalLane="S_out_0" arrivalPos="189.60" arrivalSpeed="11.70" duration="56.00" routeLength="391.38" waitingTime="11.00" waitingCount="1" stopTime="0.00" timeLoss="22.59" rerouteNo="0" devices="vehroute_flow_1_phase1_N_straight.0 tripinfo_flow_1_phase1_N_straight.0" vType="bus" speedFactor="0.86" vaporized=""/>
    <tripinfo id="flow_1_phase1_N_straight.1" depart="26.00" departLane="N_in_1" departPos="58.36" departSpeed="11.64" departDelay="0.32" arrival="56.00" arrivalLane="S_out_1" arrivalPos="189.60" arrivalSpeed="11.91" duration="30.00" routeLength="341.64" waitingTime="0.00" waitingCount="0" stopTime="0.00" timeLoss="1.52" rerouteNo="0" devices="vehroute_flow_1_phase1_N_straight.1 tripinfo_flow_1_phase1_N_straight.1" vType="moto" speedFactor="0.87" vaporized=""/>
    <tripinfo id="flow_5_phase1_S_straight.1" depart="26.00" departLane="S_in_1" departPos="31.93" departSpeed="9.28" departDelay="0.86" arrival="56.00" arrivalLane="W_out_1" arrivalPos="189.60" arrivalSpeed="15.17" duration="30.00" routeLength="366.62" waitingTime="0.00" waitingCount="0" stopTime="0.00" timeLoss="5.72" rerouteNo="0" devices="vehroute_flow_5_phase1_S_straight.1 tripinfo_flow_5_phase1_S_straight.1" vType="moto" speedFactor="1.19" vaporized=""/>
    <tripinfo id="flow_9_phase1_E_straight.1" depart="25.00" departLane="E_in_0" departPos="131.13" departSpeed="9.54" departDelay="0.53" arrival="60.00" arrivalLane="W_out_0" arrivalPos="189.60" arrivalSpeed="15.18" duration="35.00" routeLength="268.87" waitingTime="11.00" waitingCount="1" stopTime="0.00" timeLoss="18.15" rerouteNo="0" devices="vehroute_flow_9_phase1_E_straight.1 tripinfo_flow_9_phase1_E_straight.1" vType="moto" speedFactor="1.16" vaporized=""/>
    <tripinfo id="flow_13_phase1_W_straight.1" depart="26.00" departLane="W_in_1" departPos="121.65" departSpeed="2.86" departDelay="0.57" arrival="61.00" arrivalLane="E_out_0" arrivalPos="189.60" arrivalSpeed="15.03" duration="35.00" routeLength="278.35" waitingTime="7.00" waitingCount="1" stopTime="0.00" timeLoss="16.96" rerouteNo="0" devices="vehroute_flow_13_phase1_W_straight.1 tripinfo_flow_13_phase1_W_straight.1" vType="car" speedFactor="1.12" vaporized=""/>
    <tripinfo id="flow_7_phase1_S_right.0" depart="0.00" departLane="E_in_0" departPos="8.76" departSpeed="8.07" departDelay="0.00" arrival="76.00" arrivalLane="S_out_0" arrivalPos="189.60" arrivalSpeed="11.63" duration="76.00" routeLength="389.79" waitingTime="15.00" waitingCount="2" stopTime="0.00" timeLoss="41.82" rerouteNo="0" devices="vehroute_flow_7_phase1_S_right.0 tripinfo_flow_7_phase1_S_right.0" vType="container" speedFactor="0.85" vaporized=""/>
    <tripinfo id="flow_1_phase1_N_straight.2" depart="52.00" departLane="N_in_1" departPos="107.53" departSpeed="1.11" departDelay="0.64" arrival="79.00" arrivalLane="S_out_0" arrivalPos="189.60" arrivalSpeed="11.63" duration="27.00" routeLength="292.47" waitingTime="0.00" waitingCount="0" stopTime="0.00" timeLoss="3.85" rerouteNo="0" devices="vehroute_flow_1_phase1_N_straight.2 tripinfo_flow_1_phase1_N_straight.2" vType="moto" speedFactor="0.93" vaporized=""/>
    <tripinfo id="flow_5_phase1_S_straight.2" depart="51.00" departLane="S_in_1" departPos="12.70" departSpeed="12.41" departDelay="0.73" arrival="83.00" arrivalLane="W_out_1" arrivalPos="189.60" arrivalSpeed="12.92" duration="32.00" routeLength="385.85" waitingTime="0.00" waitingCount="0" stopTime="0.00" timeLoss="2.60" rerouteNo="0" devices="vehroute_flow_5_phase1_S_straight.2 tripinfo_flow_5_phase1_S_straight.2" vType="moto" speedFactor="0.96" vaporized=""/>
    <tripinfo id="flow_2_phase1_N_left.1" depart="63.00" departLane="N_in_1" departPos="128.68" departSpeed="3.06" departDelay="0.91" arrival="87.00" arrivalLane="E_out_1" arrivalPos="189.60" arrivalSpeed="13.86" duration="24.00" routeLength="269.87" waitingTime="0.00" waitingCount="0" stopTime="0.00" timeLoss="3.74" rerouteNo="0" devices="vehroute_flow_2_phase1_N_left.1 tripinfo_flow_2_phase1_N_left.1" vType="moto" speedFactor="1.04" vaporized=""/>
    <tripinfo id="flow_6_phase1_S_left.1" depart="64.00" departLane="S_in_1" departPos="110.92" departSpeed="11.99" departDelay="0.44" arrival="88.00" arrivalLane="W_out_1" arrivalPos="189.60" arrivalSpeed="13.58" duration="24.00" routeLength="287.63" waitingTime="0.00" waitingCount="0" stopTime="0.00" timeLoss="2.93" rerouteNo="0" devices="vehroute_flow_6_phase1_S_left.1 tripinfo_flow_6_phase1_S_left.1" vType="moto" speedFactor="1.05" vaporized=""/>
    <tripinfo id="flow_14_phase1_W_left.1" depart="66.00" departLane="S_in_1" departPos="93.41" departSpeed="7.95" departDelay="0.51" arrival="96.00" arrivalLane="W_out_1" arrivalPos="189.60" arrivalSpeed="12.30" duration="30.00" routeLength="305.14" waitingTime="0.00" waitingCount="0" stopTime="0.00" timeLoss="5.11" rerouteNo="0" devices="vehroute_flow_14_phase1_W_left.1 tripinfo_flow_14_phase1_W_left.1" vType="container" speedFactor="0.91" vaporized=""/>
    <tripinfo id="flow_9_phase1_E_straight.2" depart="49.00" departLane="E_in_1" departPos="52.87" departSpeed="0.38" departDelay="0.07" arrival="98.00" arrivalLane="W_out_0" arrivalPos="189.60" arrivalSpeed="12.86" duration="49.00" routeLength="347.13" waitingTime="14.00" waitingCount="1" stopTime="0.00" timeLoss="23.31" rerouteNo="0" devices="vehroute_flow_9_phase1_E_straight.2 tripinfo_flow_9_phase1_E_straight.2" vType="moto" speedFactor="0.99" vaporized=""/>
    <tripinfo id="flow_13_phase1_W_straight.3" depart="77.00" departLane="W_in_0" departPos="65.01" departSpeed="6.58" departDelay="0.71" arrival="100.00" arrivalLane="E_out_1" arrivalPos="189.60" arrivalSpeed="15.47" duration="23.00" routeLength="334.99" waitingTime="0.00" waitingCount="0" stopTime="0.00" timeLoss="1.84" rerouteNo="0" devices="vehroute_flow_13_phase1_W_straight.3 tripinfo_flow_13_phase1_W_straight.3" vType="moto" speedFactor="1.20" vaporized=""/>
    <tripinfo id="flow_15_phase1_W_right.1" depart="63.00" departLane="W_in_0" departPos="73.90" departSpeed="9.22" departDelay="0.61" arrival="102.00" arrivalLane="S_out_0" arrivalPos="189.60" arrivalSpeed="14.30" duration="39.00" routeLength="314.33" waitingTime="6.00" waitingCount="1" stopTime="0.00" timeLoss="16.87" rerouteNo="0" devices="vehroute_flow_15_phase1_W_right.1 tripinfo_flow_15_phase1_W_right.1" vType="moto" speedFactor="1.08" vaporized=""/>
    <tripinfo id="flow_13_phase1_W_straight.2" depart="51.00" departLane="W_in_1" departPos="59.51" departSpeed="13.32" departDelay="0.14" arrival="103.00" arrivalLane="E_out_0" arrivalPos="189.60" arrivalSpeed="13.09" duration="52.00" routeLength="340.49" waitingTime="16.00" waitingCount="1" stopTime="0.00" timeLoss="26.49" rerouteNo="0" devices="vehroute_flow_13_phase1_W_straight.2 tripinfo_flow_13_phase1_W_straight.2" vType="bus" speedFactor="0.97" vaporized=""/>
    <tripinfo id="flow_11_phase1_E_right.1" depart="62.00" departLane="E_in_1" departPos="66.71" departSpeed="7.87" departDelay="0.27" arrival="108.00" arrivalLane="N_out_0" arrivalPos="189.60" arrivalSpeed="10.89" duration="46.00" routeLength="321.52" waitingTime="4.00" waitingCount="1" stopTime="0.00" timeLoss="15.28" rerouteNo="0" devices="vehroute_flow_11_phase1_E_right.1 tripinfo_flow_11_phase1_E_right.1" vType="container" speedFactor="0.78" vaporized=""/>
    <tripinfo id="flow_10_phase1_E_left.1" depart="64.00" departLane="E_in_1" departPos="185.21" departSpeed="3.70" departDelay="0.35" arrival="113.00" arrivalLane="S_out_0" arrivalPos="189.60" arrivalSpeed="10.07" duration="49.00" routeLength="213.34" waitingTime="18.00" waitingCount="2" stopTime="0.00" timeLoss="27.90" rerouteNo="0" devices="vehroute_flow_10_phase1_E_left.1 tripinfo_flow_10_phase1_E_left.1" vType="truck" speedFactor="0.77" vaporized=""/>
    <tripinfo id="flow_3_phase1_N_right.1" depart="65.00" departLane="N_in_0" departPos="19.85" departSpeed="3.71" departDelay="0.05" arrival="113.00" arrivalLane="W_out_0" arrivalPos="189.60" arrivalSpeed="11.26" duration="48.00" routeLength="368.38" waitingTime="8.00" waitingCount="1" stopTime="0.00" timeLoss="16.81" rerouteNo="0" devices="vehroute_flow_3_phase1_N_right.1 tripinfo_flow_3_phase1_N_right.1" vType="moto" speedFactor="0.88" vaporized=""/>
    <tripinfo id="flow_5_phase1_S_straight.3" depart="76.00" departLane="S_in_0" departPos="184.19" departSpeed="4.95" departDelay="0.59" arrival="114.00" arrivalLane="W_out_1" arrivalPos="189.60" arrivalSpeed="14.75" duration="38.00" routeLength="214.36" waitingTime="16.00" waitingCount="3" stopTime="0.00" timeLoss="22.14" rerouteNo="0" devices="vehroute_flow_5_phase1_S_straight.3 tripinfo_flow_5_phase1_S_straight.3" vType="moto" speedFactor="1.08" vaporized=""/>
    <tripinfo id="flow_1_phase1_N_straight.3" depart="78.00" departLane="N_in_1" departPos="88.42" departSpeed="1.48" departDelay="0.96" arrival="114.00" arrivalLane="S_out_1" arrivalPos="189.60" arrivalSpeed="14.14" duration="36.00" routeLength="311.58" waitingTime="2.00" waitingCount="1" stopTime="0.00" timeLoss="13.86" rerouteNo="0" devices="vehroute_flow_1_phase1_N_straight.3 tripinfo_flow_1_phase1_N_straight.3" vType="car" speedFactor="1.05" vaporized=""/>
    <tripinfo id="flow_5_phase1_S_straight.4" depart="101.00" departLane="S_in_0" departPos="135.24" departSpeed="1.68" departDelay="0.46" arrival="131.00" arrivalLane="W_out_1" arrivalPos="189.60" arrivalSpeed="12.88" duration="30.00" routeLength="263.31" waitingTime="0.00" waitingCount="0" stopTime="0.00" timeLoss="9.59" rerouteNo="0" devices="vehroute_flow_5_phase1_S_straight.4 tripinfo_flow_5_phase1_S_straight.4" vType="container" speedFactor="0.97" vaporized=""/>
    <tripinfo id="flow_13_phase1_W_straight.4" depart="102.00" departLane="W_in_0" departPos="70.46" departSpeed="10.65" departDelay="0.28" arrival="140.00" arrivalLane="E_out_0" arrivalPos="189.60" arrivalSpeed="11.92" duration="38.00" routeLength="329.54" waitingTime="1.00" waitingCount="1" stopTime="0.00" timeLoss="10.55" rerouteNo="0" devices="vehroute_flow_13_phase1_W_straight.4 tripinfo_flow_13_phase1_W_straight.4" vType="bus" speedFactor="0.87" vaporized=""/>
    <tripinfo id="flow_7_phase1_S_right.1" depart="62.00" departLane="E_in_0" departPos="8.88" departSpeed="2.82" departDelay="0.26" arrival="141.00" arrivalLane="S_out_1" arrivalPos="189.60" arrivalSpeed="14.76" duration="79.00" routeLength="389.67" waitingTime="32.00" waitingCount="4" stopTime="0.00" timeLoss="52.74" rerouteNo="0" devices="vehroute_flow_7_phase1_S_right.1 tripinfo_flow_7_phase1_S_right.1" vType="moto" speedFactor="1.12" vaporized=""/>
    <tripinfo id="flow_9_phase1_E_straight.3" depart="74.00" departLane="E_in_0" departPos="86.42" departSpeed="8.41" departDelay="0.60" arrival="141.00" arrivalLane="W_out_0" arrivalPos="189.60" arrivalSpeed="11.62" duration="67.00" routeLength="313.58" waitingTime="22.00" waitingCount="3" stopTime="0.00" timeLoss="39.92" rerouteNo="0" devices="vehroute_flow_9_phase1_E_straight.3 tripinfo_flow_9_phase1_E_straight.3" vType="bus" speedFactor="0.85" vaporized=""/>
    <tripinfo id="flow_2_phase1_N_left.2" depart="125.00" departLane="N_in_1" departPos="129.09" departSpeed="5.80" departDelay="0.82" arrival="148.00" arrivalLane="E_out_1" arrivalPos="189.60" arrivalSpeed="15.22" duration="23.00" routeLength="269.46" waitingTime="0.00" waitingCount="0" stopTime="0.00" timeLoss="4.86" rerouteNo="0" devices="vehroute_flow_2_phase1_N_left.2 tripinfo_flow_2_phase1_N_left.2" vType="emergency" speedFactor="1.10" vaporized=""/>
    <tripinfo id="flow_9_phase1_E_straight.4" depart="98.00" departLane="E_in_1" departPos="53.32" departSpeed="10.34" departDelay="0.14" arrival="149.00" arrivalLane="W_out_1" arrivalPos="189.60" arrivalSpeed="12.55" duration="51.00" routeLength="346.68" waitingTime="7.00" waitingCount="2" stopTime="0.00" timeLoss="24.31" rerouteNo="0" devices="vehroute_flow_9_phase1_E_straight.4 tripinfo_flow_9_phase1_E_straight.4" vType="bus" speedFactor="0.95" vaporized=""/>
    <tripinfo id="flow_4_phase1_N_uturn.1" depart="126.00" departLane="N_in_0" departPos="155.68" departSpeed="8.48" departDelay="0.52" arrival="149.00" arrivalLane="N_out_1" arrivalPos="189.60" arrivalSpeed="12.19" duration="23.00" routeLength="228.19" waitingTime="0.00" waitingCount="0" stopTime="0.00" timeLoss="4.94" rerouteNo="0" devices="vehroute_flow_4_phase1_N_uturn.1 tripinfo_flow_4_phase1_N_uturn.1" vType="moto" speedFactor="0.95" vaporized=""/>
    <tripinfo id="flow_1_phase1_N_straight.4" depart="103.00" departLane="N_in_1" departPos="74.07" departSpeed="0.54" departDelay="0.28" arrival="154.00" arrivalLane="S_out_0" arrivalPos="189.60" arrivalSpeed="12.75" duration="51.00" routeLength="325.93" waitingTime="7.00" waitingCount="1" stopTime="0.00" timeLoss="25.04" rerouteNo="0" devices="vehroute_flow_1_phase1_N_straight.4 tripinfo_flow_1_phase1_N_straight.4" vType="truck" speedFactor="0.92" vaporized=""/>
    <tripinfo id="flow_3_phase1_N_right.2" depart="130.00" departLane="N_in_0" departPos="87.76" departSpeed="12.03" departDelay="0.11" arrival="154.00" arrivalLane="W_out_0" arrivalPos="189.60" arrivalSpeed="14.22" duration="24.00" routeLength="300.47" waitingTime="0.00" waitingCount="0" stopTime="0.00" timeLoss="3.01" rerouteNo="0" devices="vehroute_flow_3_phase1_N_right.2 tripinfo_flow_3_phase1_N_right.2" vType="moto" speedFactor="1.10" vaporized=""/>
    <tripinfo id="flow_1_phase1_N_straight.5" depart="129.00" departLane="N_in_1" departPos="92.42" departSpeed="4.93" departDelay="0.60" arrival="156.00" arrivalLane="S_out_1" arrivalPos="189.60" arrivalSpeed="12.49" duration="27.00" routeLength="307.58" waitingTime="0.00" waitingCount="0" stopTime="0.00" timeLoss="2.21" rerouteNo="0" devices="vehroute_flow_1_phase1_N_straight.5 tripinfo_flow_1_phase1_N_straight.5" vType="moto" speedFactor="0.90" vaporized=""/>
    <tripinfo id="flow_11_phase1_E_right.2" depart="124.00" departLane="E_in_1" departPos="111.69" departSpeed="6.85" departDelay="0.54" arrival="158.00" arrivalLane="N_out_0" arrivalPos="189.60" arrivalSpeed="14.90" duration="34.00" routeLength="276.54" waitingTime="8.00" waitingCount="1" stopTime="0.00" timeLoss="15.21" rerouteNo="0" devices="vehroute_flow_11_phase1_E_right.2 tripinfo_flow_11_phase1_E_right.2" vType="moto" speedFactor="1.14" vaporized=""/>
    <tripinfo id="flow_6_phase1_S_left.2" depart="128.00" departLane="S_in_1" departPos="174.17" departSpeed="9.64" departDelay="0.88" arrival="158.00" arrivalLane="W_out_1" arrivalPos="189.60" arrivalSpeed="14.23" duration="30.00" routeLength="224.38" waitingTime="7.00" waitingCount="1" stopTime="0.00" timeLoss="13.75" rerouteNo="0" devices="vehroute_flow_6_phase1_S_left.2 tripinfo_flow_6_phase1_S_left.2" vType="moto" speedFactor="1.07" vaporized=""/>
    <tripinfo id="flow_9_phase1_E_straight.5" depart="123.00" departLane="E_in_1" departPos="160.30" departSpeed="9.93" departDelay="0.67" arrival="160.00" arrivalLane="W_out_0" arrivalPos="189.60" arrivalSpeed="13.83" duration="37.00" routeLength="239.70" waitingTime="9.00" waitingCount="1" stopTime="0.00" timeLoss="19.71" rerouteNo="0" devices="vehroute_flow_9_phase1_E_straight.5 tripinfo_flow_9_phase1_E_straight.5" vType="moto" speedFactor="1.03" vaporized=""/>
    <tripinfo id="flow_8_phase1_S_uturn.1" depart="126.00" departLane="S_in_0" departPos="91.52" departSpeed="11.56" departDelay="0.74" arrival="160.00" arrivalLane="S_out_1" arrivalPos="189.60" arrivalSpeed="12.62" duration="34.00" routeLength="292.35" waitingTime="2.00" waitingCount="1" stopTime="0.00" timeLoss="10.24" rerouteNo="0" devices="vehroute_flow_8_phase1_S_uturn.1 tripinfo_flow_8_phase1_S_uturn.1" vType="moto" speedFactor="0.94" vaporized=""/>
    <tripinfo id="flow_13_phase1_W_straight.5" depart="128.00" departLane="W_in_0" departPos="161.41" departSpeed="1.65" departDelay="0.86" arrival="160.00" arrivalLane="E_out_0" arrivalPos="189.60" arrivalSpeed="14.28" duration="32.00" routeLength="238.59" waitingTime="6.00" waitingCount="1" stopTime="0.00" timeLoss="14.66" rerouteNo="0" devices="vehroute_flow_13_phase1_W_straight.5 tripinfo_flow_13_phase1_W_straight.5" vType="moto" speedFactor="1.04" vaporized=""/>
    <tripinfo id="flow_10_phase1_E_left.2" depart="128.00" departLane="E_in_1" departPos="172.37" departSpeed="5.13" departDelay="0.70" arrival="162.00" arrivalLane="S_out_1" arrivalPos="189.60" arrivalSpeed="14.97" duration="34.00" routeLength="226.18" waitingTime="8.00" waitingCount="1" stopTime="0.00" timeLoss="18.20" rerouteNo="0" devices="vehroute_flow_10_phase1_E_left.2 tripinfo_flow_10_phase1_E_left.2" vType="moto" speedFactor="1.14" vaporized=""/>
    <tripinfo id="flow_7_phase1_S_right.2" depart="124.00" departLane="E_in_1" departPos="65.33" departSpeed="12.53" departDelay="0.52" arrival="164.00" arrivalLane="S_out_1" arrivalPos="189.60" arrivalSpeed="12.90" duration="40.00" routeLength="333.22" waitingTime="7.00" waitingCount="1" stopTime="0.00" timeLoss="14.75" rerouteNo="0" devices="vehroute_flow_7_phase1_S_right.2 tripinfo_flow_7_phase1_S_right.2" vType="moto" speedFactor="1.00" vaporized=""/>
    <tripinfo id="flow_15_phase1_W_right.2" depart="125.00" departLane="W_in_1" departPos="19.51" departSpeed="7.49" departDelay="0.22" arrival="165.00" arrivalLane="S_out_0" arrivalPos="189.60" arrivalSpeed="12.78" duration="40.00" routeLength="368.72" waitingTime="1.00" waitingCount="1" stopTime="0.00" timeLoss="10.88" rerouteNo="0" devices="vehroute_flow_15_phase1_W_right.2 tripinfo_flow_15_phase1_W_right.2" vType="truck" speedFactor="0.94" vaporized=""/>
    <tripinfo id="flow_12_phase1_E_uturn.1" depart="126.00" departLane="E_in_1" departPos="65.57" departSpeed="2.39" departDelay="0.96" arrival="166.00" arrivalLane="E_out_1" arrivalPos="189.60" arrivalSpeed="13.37" duration="40.00" routeLength="318.30" waitingTime="6.00" waitingCount="1" stopTime="0.00" timeLoss="15.98" rerouteNo="0" devices="vehroute_flow_12_phase1_E_uturn.1 tripinfo_flow_12_phase1_E_uturn.1" vType="moto" speedFactor="1.03" vaporized=""/>
    <tripinfo id="flow_16_phase1_W_uturn.1" depart="126.00" departLane="W_in_0" departPos="64.25" departSpeed="5.83" departDelay="0.21" arrival="167.00" arrivalLane="W_out_1" arrivalPos="189.60" arrivalSpeed="11.75" duration="41.00" routeLength="319.62" waitingTime="1.00" waitingCount="1" stopTime="0.00" timeLoss="14.17" rerouteNo="0" devices="vehroute_flow_16_phase1_W_uturn.1 tripinfo_flow_16_phase1_W_uturn.1" vType="truck" speedFactor="0.89" vaporized=""/>
    <tripinfo id="flow_5_phase1_S_straight.5" depart="126.00" departLane="S_in_1" departPos="2.77" departSpeed="6.78" departDelay="0.32" arrival="175.00" arrivalLane="W_out_1" arrivalPos="189.60" arrivalSpeed="11.79" duration="49.00" routeLength="395.78" waitingTime="10.00" waitingCount="1" stopTime="0.00" timeLoss="15.88" rerouteNo="0" devices="vehroute_flow_5_phase1_S_straight.5 tripinfo_flow_5_phase1_S_straight.5" vType="moto" speedFactor="0.89" vaporized=""/>
    <tripinfo id="flow_14_phase1_W_left.2" depart="131.00" departLane="S_in_1" departPos="39.34" departSpeed="4.15" departDelay="0.02" arrival="177.00" arrivalLane="W_out_1" arrivalPos="189.60" arrivalSpeed="12.30" duration="46.00" routeLength="359.21" waitingTime="9.00" waitingCount="1" stopTime="0.00" timeLoss="16.15" rerouteNo="0" devices="vehroute_flow_14_phase1_W_left.2 tripinfo_flow_14_phase1_W_left.2" vType="car" speedFactor="0.90" vaporized=""/>
    <tripinfo id="flow_5_phase1_S_straight.6" depart="151.00" departLane="S_in_0" departPos="69.49" departSpeed="6.79" departDelay="0.18" arrival="179.00" arrivalLane="W_out_1" arrivalPos="189.60" arrivalSpeed="14.81" duration="28.00" routeLength="329.06" waitingTime="0.00" waitingCount="0" stopTime="0.00" timeLoss="4.84" rerouteNo="0" devices="vehroute_flow_5_phase1_S_straight.6 tripinfo_flow_5_phase1_S_straight.6" vType="moto" speedFactor="1.10" vaporized=""/>
    <tripinfo id="flow_1_phase1_N_straight.6" depart="155.00" departLane="N_in_1" departPos="21.74" departSpeed="10.75" departDelay="0.91" arrival="185.00" arrivalLane="S_out_0" arrivalPos="189.60" arrivalSpeed="12.35" duration="30.00" routeLength="378.26" waitingTime="0.00" waitingCount="0" stopTime="0.00" timeLoss="1.58" rerouteNo="0" devices="vehroute_flow_1_phase1_N_straight.6 tripinfo_flow_1_phase1_N_straight.6" vType="car" speedFactor="0.98" vaporized=""/>
    <tripinfo id="flow_9_phase1_E_straight.6" depart="147.00" departLane="E_in_0" departPos="61.32" departSpeed="6.33" departDelay="0.20" arrival="196.00" arrivalLane="W_out_0" arrivalPos="189.60" arrivalSpeed="13.00" duration="49.00" routeLength="338.68" waitingTime="17.00" waitingCount="1" stopTime="0.00" timeLoss="24.86" rerouteNo="0" devices="vehroute_flow_9_phase1_E_straight.6 tripinfo_flow_9_phase1_E_straight.6" vType="moto" speedFactor="1.02" vaporized=""/>
    <tripinfo id="flow_13_phase1_W_straight.6" depart="153.00" departLane="W_in_1" departPos="109.89" departSpeed="2.14" departDelay="0.43" arrival="197.00" arrivalLane="E_out_0" arrivalPos="189.60" arrivalSpeed="12.64" duration="44.00" routeLength="290.11" waitingTime="14.00" waitingCount="1" stopTime="0.00" timeLoss="22.06" rerouteNo="0" devices="vehroute_flow_13_phase1_W_straight.6 tripinfo_flow_13_phase1_W_straight.6" vType="car" speedFactor="0.98" vaporized=""/>
    <tripinfo id="flow_9_phase1_E_straight.7" depart="172.00" departLane="E_in_0" departPos="43.18" departSpeed="3.17" departDelay="0.74" arrival="201.00" arrivalLane="W_out_0" arrivalPos="189.60" arrivalSpeed="13.61" duration="29.00" routeLength="356.82" waitingTime="0.00" waitingCount="0" stopTime="0.00" timeLoss="2.91" rerouteNo="0" devices="vehroute_flow_9_phase1_E_straight.7 tripinfo_flow_9_phase1_E_straight.7" vType="moto" speedFactor="1.01" vaporized=""/>
    <tripinfo id="flow_13_phase1_W_straight.7" depart="179.00" departLane="W_in_1" departPos="88.32" departSpeed="9.46" departDelay="1.00" arrival="209.00" arrivalLane="E_out_0" arrivalPos="189.60" arrivalSpeed="10.37" duration="30.00" routeLength="311.68" waitingTime="0.00" waitingCount="0" stopTime="0.00" timeLoss="1.94" rerouteNo="0" devices="vehroute_flow_13_phase1_W_straight.7 tripinfo_flow_13_phase1_W_straight.7" vType="moto" speedFactor="0.80" vaporized=""/>