<?xml version="1.0" encoding="UTF-8"?>

<!-- generated on 2025-12-09 20:39:48 by Eclipse SUMO sumo Version 1.18.0
<configuration xmlns:xsi="http://www.w3.org/2001/XMLSchema-instance" xsi:noNamespaceSchemaLocation="http://sumo.dlr.de/xsd/sumoConfiguration.xsd">

    <input>
        <net-file value="nets/60p2k/net.net.xml"/>
        <route-files value="nets/60p2k/route_temp_26_124611776755504_93502079.rou.xml"/>
    </input>

    <output>
        <summary-output value="result_ddqn_1.0_0.1/summary_ep_9.xml"/>
        <tripinfo-output value="result_ddqn_1.0_0.1/tripinfo_ep_9.xml"/>
        <vehroute-output value="result_ddqn_1.0_0.1/vehroute_ep_9.xml"/>
    </output>

    <time>
        <begin value="0"/>
    </time>

    <report>
        <verbose value="true"/>
        <no-warnings value="true"/>
        <no-step-log value="true"/>
    </report>

    <traci_server>
        <remote-port value="60247"/>
    </traci_server>

    <gui_only>
        <gui-settings-file value="nets/60p2k/gui-settings.xml"/>
        <quit-on-end value="true"/>
    </gui_only>

</configuration>
-->

<tripinfos xmlns:xsi="http://www.w3.org/2001/XMLSchema-instance" xsi:noNamespaceSchemaLocation="http://sumo.dlr.de/xsd/tripinfo_file.xsd">
    <tripinfo id="flow_8_phase1_S_uturn.0" depart="0.00" departLane="S_in_0" departPos="120.11" departSpeed="4.48" departDelay="0.00" arrival="24.00" arrivalLane="S_out_1" arrivalPos="189.60" arrivalSpeed="13.35" duration="24.00" routeLength="263.76" waitingTime="0.00" waitingCount="0" stopTime="0.00" timeLoss="5.06" rerouteNo="0" devices="vehroute_flow_8_phase1_S_uturn.0 tripinfo_flow_8_phase1_S_uturn.0" vType="moto" speedFactor="1.05" vaporized=""/>
    <tripinfo id="flow_9_phase1_E_straight.0" depart="0.00" departLane="N_in_0" departPos="168.29" departSpeed="9.83" departDelay="0.00" arrival="24.00" arrivalLane="N_out_1" arrivalPos="189.60" arrivalSpeed="12.17" duration="24.00" routeLength="215.58" waitingTime="0.00" waitingCount="0" stopTime="0.00" timeLoss="5.80" rerouteNo="0" devices="vehroute_flow_9_phase1_E_straight.0 tripinfo_flow_9_phase1_E_straight.0" vType="truck" speedFactor="0.90" vaporized=""/>
    <tripinfo id="flow_6_phase1_S_left.0" depart="0.00" departLane="S_in_1" departPos="166.01" departSpeed="0.74" departDelay="0.00" arrival="25.00" arrivalLane="W_out_1" arrivalPos="189.60" arrivalSpeed="11.57" duration="25.00" routeLength="232.54" waitingTime="0.00" waitingCount="0" stopTime="0.00" timeLoss="4.31" rerouteNo="0" devices="vehroute_flow_6_phase1_S_left.0 tripinfo_flow_6_phase1_S_left.0" vType="moto" speedFactor="0.88" vaporized=""/>
    <tripinfo id="flow_5_phase1_S_straight.0" depart="0.00" departLane="S_in_1" departPos="107.37" departSpeed="7.21" departDelay="0.00" arrival="26.00" arrivalLane="N_out_1" arrivalPos="189.60" arrivalSpeed="15.68" duration="26.00" routeLength="292.63" waitingTime="0.00" waitingCount="0" stopTime="0.00" timeLoss="6.97" rerouteNo="0" devices="vehroute_flow_5_phase1_S_straight.0 tripinfo_flow_5_phase1_S_straight.0" vType="moto" speedFactor="1.15" vaporized=""/>
    <tripinfo id="flow_2_phase1_N_left.0" depart="0.00" departLane="N_in_1" departPos="8.27" departSpeed="8.33" departDelay="0.00" arrival="31.00" arrivalLane="E_out_1" arrivalPos="189.60" arrivalSpeed="13.60" duration="31.00" routeLength="390.28" waitingTime="0.00" waitingCount="0" stopTime="0.00" timeLoss="2.54" rerouteNo="0" devices="vehroute_flow_2_phase1_N_left.0 tripinfo_flow_2_phase1_N_left.0" vType="moto" speedFactor="1.02" vaporized=""/>
    <tripinfo id="flow_3_phase1_N_right.0" depart="0.00" departLane="E_in_0" departPos="103.38" departSpeed="3.75" departDelay="0.00" arrival="34.00" arrivalLane="E_out_1" arrivalPos="189.60" arrivalSpeed="14.28" duration="34.00" routeLength="280.49" waitingTime="7.00" waitingCount="1" stopTime="0.00" timeLoss="14.83" rerouteNo="0" devices="vehroute_flow_3_phase1_N_right.0 tripinfo_flow_3_phase1_N_right.0" vType="car" speedFactor="1.09" vaporized=""/>
    <tripinfo id="flow_14_phase1_W_left.0" depart="0.00" departLane="W_in_1" departPos="182.88" departSpeed="5.61" departDelay="0.00" arrival="36.00" arrivalLane="N_out_1" arrivalPos="189.60" arrivalSpeed="14.02" duration="36.00" routeLength="215.67" waitingTime="14.00" waitingCount="1" stopTime="0.00" timeLoss="19.64" rerouteNo="0" devices="vehroute_flow_14_phase1_W_left.0 tripinfo_flow_14_phase1_W_left.0" vType="moto" speedFactor="1.01" vaporized=""/>
    <tripinfo id="flow_16_phase1_W_uturn.0" depart="0.00" departLane="W_in_0" departPos="126.68" departSpeed="11.71" departDelay="0.00" arrival="38.00" arrivalLane="W_out_1" arrivalPos="189.60" arrivalSpeed="14.32" duration="38.00" routeLength="257.19" waitingTime="11.00" waitingCount="1" stopTime="0.00" timeLoss="17.79" rerouteNo="0" devices="vehroute_flow_16_phase1_W_uturn.0 tripinfo_flow_16_phase1_W_uturn.0" vType="moto" speedFactor="1.04" vaporized=""/>
    <tripinfo id="flow_15_phase1_W_right.0" depart="0.00" departLane="W_in_0" departPos="108.38" departSpeed="2.63" departDelay="0.00" arrival="39.00" arrivalLane="S_out_0" arrivalPos="189.60" arrivalSpeed="10.73" duration="39.00" routeLength="279.85" waitingTime="7.00" waitingCount="1" stopTime="0.00" timeLoss="13.65" rerouteNo="0" devices="vehroute_flow_15_phase1_W_right.0 tripinfo_flow_15_phase1_W_right.0" vType="moto" speedFactor="0.85" vaporized=""/>
    <tripinfo id="flow_11_phase1_E_right.0" depart="0.00" departLane="E_in_1" departPos="144.95" departSpeed="4.02" departDelay="0.00" arrival="40.00" arrivalLane="N_out_0" arrivalPos="189.60" arrivalSpeed="13.21" duration="40.00" routeLength="243.28" waitingTime="8.00" waitingCount="1" stopTime="0.00" timeLoss="20.58" rerouteNo="0" devices="vehroute_flow_11_phase1_E_right.0 tripinfo_flow_11_phase1_E_right.0" vType="bus" speedFactor="0.96" vaporized=""/>
    <tripinfo id="flow_4_phase1_N_uturn.0" depart="0.00" departLane="W_in_1" departPos="127.60" departSpeed="0.08" departDelay="0.00" arrival="41.00" arrivalLane="N_out_1" arrivalPos="189.60" arrivalSpeed="11.96" duration="41.00" routeLength="270.95" waitingTime="10.00" waitingCount="1" stopTime="0.00" timeLoss="18.32" rerouteNo="0" devices="vehroute_flow_4_phase1_N_uturn.0 tripinfo_flow_4_phase1_N_uturn.0" vType="car" speedFactor="0.92" vaporized=""/>
    <tripinfo id="flow_10_phase1_E_left.0" depart="0.00" departLane="E_in_0" departPos="44.88" departSpeed="7.69" departDelay="0.00" arrival="43.00" arrivalLane="S_out_1" arrivalPos="189.60" arrivalSpeed="13.38" duration="43.00" routeLength="353.67" waitingTime="3.00" waitingCount="1" stopTime="0.00" timeLoss="16.97" rerouteNo="0" devices="vehroute_flow_10_phase1_E_left.0 tripinfo_flow_10_phase1_E_left.0" vType="truck" speedFactor="1.02" vaporized=""/>
    <tripinfo id="flow_12_phase1_E_uturn.0" depart="0.00" departLane="E_in_0" departPos="5.65" departSpeed="13.76" departDelay="0.00" arrival="44.00" arrivalLane="E_out_1" arrivalPos="189.60" arrivalSpeed="14.10" duration="44.00" routeLength="378.22" waitingTime="3.00" waitingCount="1" stopTime="0.00" timeLoss="16.39" rerouteNo="0" devices="vehroute_flow_12_phase1_E_uturn.0 tripinfo_flow_12_phase1_E_uturn.0" vType="moto" speedFactor="1.03" vaporized=""/>
    <tripinfo id="flow_13_phase1_W_straight.0" depart="0.00" departLane="W_in_0" departPos="24.53" departSpeed="3.79" departDelay="0.00" arrival="49.00" arrivalLane="N_out_1" arrivalPos="189.60" arrivalSpeed="11.39" duration="49.00" routeLength="374.02" waitingTime="0.00" waitingCount="0" stopTime="0.00" timeLoss="15.04" rerouteNo="0" devices="vehroute_flow_13_phase1_W_straight.0 tripinfo_flow_13_phase1_W_straight.0" vType="container" speedFactor="0.82" vaporized=""/>
    <tripinfo id="flow_9_phase1_E_straight.1" depart="25.00" departLane="N_in_0" departPos="131.13" departSpeed="9.54" departDelay="0.53" arrival="51.00" arrivalLane="N_out_1" arrivalPos="189.60" arrivalSpeed="14.78" duration="26.00" routeLength="252.74" waitingTime="0.00" waitingCount="0" stopTime="0.00" timeLoss="8.62" rerouteNo="0" devices="vehroute_flow_9_phase1_E_straight.1 tripinfo_flow_9_phase1_E_straight.1" vType="moto" speedFactor="1.16" vaporized=""/>
    <tripinfo id="flow_5_phase1_S_straight.1" depart="26.00" departLane="S_in_1" departPos="31.93" departSpeed="9.28" departDelay="0.86" arrival="53.00" arrivalLane="N_out_1" arrivalPos="189.60" arrivalSpeed="15.32" duration="27.00" routeLength="368.07" waitingTime="0.00" waitingCount="0" stopTime="0.00" timeLoss="3.19" rerouteNo="0" devices="vehroute_flow_5_phase1_S_straight.1 tripinfo_flow_5_phase1_S_straight.1" vType="moto" speedFactor="1.19" vaporized=""/>
    <tripinfo id="flow_1_phase1_N_straight.0" depart="0.00" departLane="N_in_0" departPos="8.62" departSpeed="8.51" departDelay="0.00" arrival="54.00" arrivalLane="W_out_0" arrivalPos="189.60" arrivalSpeed="11.31" duration="54.00" routeLength="379.61" waitingTime="11.00" waitingCount="1" stopTime="0.00" timeLoss="21.05" rerouteNo="0" devices="vehroute_flow_1_phase1_N_straight.0 tripinfo_flow_1_phase1_N_straight.0" vType="bus" speedFactor="0.86" vaporized=""/>
    <tripinfo id="flow_7_phase1_S_right.0" depart="0.00" departLane="S_in_0" departPos="8.76" departSpeed="8.07" departDelay="0.00" arrival="56.00" arrivalLane="S_out_0" arrivalPos="189.60" arrivalSpeed="11.67" duration="56.00" routeLength="375.11" waitingTime="12.00" waitingCount="1" stopTime="0.00" timeLoss="22.55" rerouteNo="0" devices="vehroute_flow_7_phase1_S_right.0 tripinfo_flow_7_phase1_S_right.0" vType="container" speedFactor="0.85" vaporized=""/>
    <tripinfo id="flow_1_phase1_N_straight.1" depart="26.00" departLane="N_in_1" departPos="58.36" departSpeed="11.64" departDelay="0.32" arrival="58.00" arrivalLane="W_out_0" arrivalPos="189.60" arrivalSpeed="11.71" duration="32.00" routeLength="329.87" waitingTime="0.00" waitingCount="0" stopTime="0.00" timeLoss="3.67" rerouteNo="0" devices="vehroute_flow_1_phase1_N_straight.1 tripinfo_flow_1_phase1_N_straight.1" vType="moto" speedFactor="0.87" vaporized=""/>
    <tripinfo id="flow_13_phase1_W_straight.1" depart="26.00" departLane="W_in_1" departPos="121.65" departSpeed="2.86" departDelay="0.57" arrival="61.00" arrivalLane="N_out_1" arrivalPos="189.60" arrivalSpeed="14.56" duration="35.00" routeLength="276.90" waitingTime="7.00" waitingCount="1" stopTime="0.00" timeLoss="16.06" rerouteNo="0" devices="vehroute_flow_13_phase1_W_straight.1 tripinfo_flow_13_phase1_W_straight.1" vType="car" speedFactor="1.12" vaporized=""/>
    <tripinfo id="flow_1_phase1_N_straight.2" depart="52.00" departLane="N_in_1" departPos="107.53" departSpeed="1.11" departDelay="0.64" arrival="81.00" arrivalLane="W_out_0" arrivalPos="189.60" arrivalSpeed="12.54" duration="29.00" routeLength="280.70" waitingTime="0.00" waitingCount="0" stopTime="0.00" timeLoss="5.41" rerouteNo="0" devices="vehroute_flow_1_phase1_N_straight.2 tripinfo_flow_1_phase1_N_straight.2" vType="moto" speedFactor="0.93" vaporized=""/>
    <tripinfo id="flow_5_phase1_S_straight.2" depart="51.00" departLane="S_in_1" departPos="12.70" departSpeed="12.41" departDelay="0.73" arrival="82.00" arrivalLane="N_out_0" arrivalPos="189.60" arrivalSpeed="13.06" duration="31.00" routeLength="387.30" waitingTime="0.00" waitingCount="0" stopTime="0.00" timeLoss="1.33" rerouteNo="0" devices="vehroute_flow_5_phase1_S_straight.2 tripinfo_flow_5_phase1_S_straight.2" vType="moto" speedFactor="0.96" vaporized=""/>
    <tripinfo id="flow_9_phase1_E_straight.2" depart="49.00" departLane="N_in_1" departPos="52.87" departSpeed="0.38" departDelay="0.07" arrival="85.00" arrivalLane="N_out_1" arrivalPos="189.60" arrivalSpeed="13.66" duration="36.00" routeLength="331.00" waitingTime="2.00" waitingCount="1" stopTime="0.00" timeLoss="11.12" rerouteNo="0" devices="vehroute_flow_9_phase1_E_straight.2 tripinfo_flow_9_phase1_E_straight.2" vType="moto" speedFactor="0.99" vaporized=""/>
    <tripinfo id="flow_15_phase1_W_right.1" depart="63.00" departLane="W_in_0" departPos="73.90" departSpeed="9.22" departDelay="0.61" arrival="88.00" arrivalLane="S_out_0" arrivalPos="189.60" arrivalSpeed="14.66" duration="25.00" routeLength="314.33" waitingTime="0.00" waitingCount="0" stopTime="0.00" timeLoss="3.29" rerouteNo="0" devices="vehroute_flow_15_phase1_W_right.1 tripinfo_flow_15_phase1_W_right.1" vType="moto" speedFactor="1.08" vaporized=""/>
    <tripinfo id="flow_13_phase1_W_straight.2" depart="51.00" departLane="W_in_1" departPos="59.51" departSpeed="13.32" departDelay="0.14" arrival="92.00" arrivalLane="N_out_1" arrivalPos="189.60" arrivalSpeed="12.91" duration="41.00" routeLength="339.04" waitingTime="5.00" waitingCount="1" stopTime="0.00" timeLoss="14.75" rerouteNo="0" devices="vehroute_flow_13_phase1_W_straight.2 tripinfo_flow_13_phase1_W_straight.2" vType="bus" speedFactor="0.97" vaporized=""/>
    <tripinfo id="flow_10_phase1_E_left.1" depart="64.00" departLane="E_in_1" departPos="185.21" departSpeed="3.70" departDelay="0.35" arrival="95.00" arrivalLane="S_out_0" arrivalPos="189.60" arrivalSpeed="10.18" duration="31.00" routeLength="213.34" waitingTime="2.00" waitingCount="1" stopTime="0.00" timeLoss="9.16" rerouteNo="0" devices="vehroute_flow_10_phase1_E_left.1 tripinfo_flow_10_phase1_E_left.1" vType="truck" speedFactor="0.77" vaporized=""/>
    <tripinfo id="flow_11_phase1_E_right.1" depart="62.00" departLane="E_in_1" departPos="66.71" departSpeed="7.87" departDelay="0.27" arrival="97.00" arrivalLane="N_out_0" arrivalPos="189.60" arrivalSpeed="10.66" duration="35.00" routeLength="321.52" waitingTime="0.00" waitingCount="0" stopTime="0.00" timeLoss="4.52" rerouteNo="0" devices="vehroute_flow_11_phase1_E_right.1 tripinfo_flow_11_phase1_E_right.1" vType="container" speedFactor="0.78" vaporized=""/>
    <tripinfo id="flow_14_phase1_W_left.1" depart="66.00" departLane="W_in_1" departPos="93.41" departSpeed="7.95" departDelay="0.51" arrival="97.00" arrivalLane="N_out_1" arrivalPos="189.60" arrivalSpeed="12.29" duration="31.00" routeLength="305.14" waitingTime="0.00" waitingCount="0" stopTime="0.00" timeLoss="6.25" rerouteNo="0" devices="vehroute_flow_14_phase1_W_left.1 tripinfo_flow_14_phase1_W_left.1" vType="container" speedFactor="0.91" vaporized=""/>
    <tripinfo id="flow_6_phase1_S_left.1" depart="64.00" departLane="S_in_1" departPos="110.92" departSpeed="11.99" departDelay="0.44" arrival="100.00" arrivalLane="W_out_1" arrivalPos="189.60" arrivalSpeed="13.37" duration="36.00" routeLength="287.63" waitingTime="10.00" waitingCount="1" stopTime="0.00" timeLoss="15.43" rerouteNo="0" devices="vehroute_flow_6_phase1_S_left.1 tripinfo_flow_6_phase1_S_left.1" vType="moto" speedFactor="1.05" vaporized=""/>
    <tripinfo id="flow_5_phase1_S_straight.3" depart="76.00" departLane="S_in_0" departPos="184.19" departSpeed="4.95" departDelay="0.59" arrival="100.00" arrivalLane="N_out_0" arrivalPos="189.60" arrivalSpeed="14.84" duration="24.00" routeLength="215.81" waitingTime="4.00" waitingCount="1" stopTime="0.00" timeLoss="9.35" rerouteNo="0" devices="vehroute_flow_5_phase1_S_straight.3 tripinfo_flow_5_phase1_S_straight.3" vType="moto" speedFactor="1.08" vaporized=""/>
    <tripinfo id="flow_7_phase1_S_right.1" depart="62.00" departLane="S_in_0" departPos="8.88" departSpeed="2.82" departDelay="0.26" arrival="102.00" arrivalLane="S_out_1" arrivalPos="189.60" arrivalSpeed="15.44" duration="40.00" routeLength="374.99" waitingTime="4.00" waitingCount="1" stopTime="0.00" timeLoss="14.37" rerouteNo="0" devices="vehroute_flow_7_phase1_S_right.1 tripinfo_flow_7_phase1_S_right.1" vType="moto" speedFactor="1.12" vaporized=""/>
    <tripinfo id="flow_2_phase1_N_left.1" depart="63.00" departLane="N_in_1" departPos="128.68" departSpeed="3.06" departDelay="0.91" arrival="104.00" arrivalLane="E_out_1" arrivalPos="189.60" arrivalSpeed="14.24" duration="41.00" routeLength="269.87" waitingTime="12.00" waitingCount="2" stopTime="0.00" timeLoss="21.26" rerouteNo="0" devices="vehroute_flow_2_phase1_N_left.1 tripinfo_flow_2_phase1_N_left.1" vType="moto" speedFactor="1.04" vaporized=""/>
    <tripinfo id="flow_1_phase1_N_straight.3" depart="78.00" departLane="N_in_1" departPos="88.42" departSpeed="1.48" departDelay="0.96" arrival="105.00" arrivalLane="W_out_0" arrivalPos="189.60" arrivalSpeed="13.27" duration="27.00" routeLength="299.81" waitingTime="0.00" waitingCount="0" stopTime="0.00" timeLoss="5.44" rerouteNo="0" devices="vehroute_flow_1_phase1_N_straight.3 tripinfo_flow_1_phase1_N_straight.3" vType="car" speedFactor="1.05" vaporized=""/>
    <tripinfo id="flow_9_phase1_E_straight.3" depart="74.00" departLane="N_in_0" departPos="86.42" departSpeed="8.41" departDelay="0.60" arrival="109.00" arrivalLane="N_out_0" arrivalPos="189.60" arrivalSpeed="11.79" duration="35.00" routeLength="297.45" waitingTime="1.00" waitingCount="1" stopTime="0.00" timeLoss="8.39" rerouteNo="0" devices="vehroute_flow_9_phase1_E_straight.3 tripinfo_flow_9_phase1_E_straight.3" vType="bus" speedFactor="0.85" vaporized=""/>
    <tripinfo id="flow_13_phase1_W_straight.3" depart="77.00" departLane="W_in_0" departPos="65.01" departSpeed="6.58" departDelay="0.71" arrival="112.00" arrivalLane="N_out_1" arrivalPos="189.60" arrivalSpeed="14.75" duration="35.00" routeLength="333.54" waitingTime="7.00" waitingCount="1" stopTime="0.00" timeLoss="13.71" rerouteNo="0" devices="vehroute_flow_13_phase1_W_straight.3 tripinfo_flow_13_phase1_W_straight.3" vType="moto" speedFactor="1.20" vaporized=""/>
    <tripinfo id="flow_3_phase1_N_right.1" depart="65.00" departLane="E_in_0" departPos="19.85" departSpeed="3.71" departDelay="0.05" arrival="116.00" arrivalLane="E_out_1" arrivalPos="189.60" arrivalSpeed="11.87" duration="51.00" routeLength="364.02" waitingTime="13.00" waitingCount="1" stopTime="0.00" timeLoss="19.56" rerouteNo="0" devices="vehroute_flow_3_phase1_N_right.1 tripinfo_flow_3_phase1_N_right.1" vType="moto" speedFactor="0.88" vaporized=""/>
    <tripinfo id="flow_13_phase1_W_straight.4" depart="102.00" departLane="W_in_0" departPos="70.46" departSpeed="10.65" departDelay="0.28" arrival="133.00" arrivalLane="N_out_1" arrivalPos="189.60" arrivalSpeed="11.77" duration="31.00" routeLength="328.09" waitingTime="0.00" waitingCount="0" stopTime="0.00" timeLoss="2.28" rerouteNo="0" devices="vehroute_flow_13_phase1_W_straight.4 tripinfo_flow_13_phase1_W_straight.4" vType="bus" speedFactor="0.87" vaporized=""/>
    <tripinfo id="flow_1_phase1_N_straight.4" depart="103.00" departLane="N_in_1" departPos="74.07" departSpeed="0.54" departDelay="0.28" arrival="139.00" arrivalLane="W_out_0" arrivalPos="189.60" arrivalSpeed="12.38" duration="36.00" routeLength="314.16" waitingTime="0.00" waitingCount="0" stopTime="0.00" timeLoss="10.40" rerouteNo="0" devices="vehroute_flow_1_phase1_N_straight.4 tripinfo_flow_1_phase1_N_straight.4" vType="truck" speedFactor="0.92" vaporized=""/>
    <tripinfo id="flow_9_phase1_E_straight.4" depart="98.00" departLane="N_in_1" departPos="53.32" departSpeed="10.34" departDelay="0.14" arrival="141.00" arrivalLane="N_out_1" arrivalPos="189.60" arrivalSpeed="12.81" duration="43.00" routeLength="330.55" waitingTime="7.00" waitingCount="1" stopTime="0.00" timeLoss="17.16" rerouteNo="0" devices="vehroute_flow_9_phase1_E_straight.4 tripinfo_flow_9_phase1_E_straight.4" vType="bus" speedFactor="0.95" vaporized=""/>
    <tripinfo id="flow_9_phase1_E_straight.5" depart="123.00" departLane="N_in_1" departPos="160.30" departSpeed="13.01" departDelay="0.67" arrival="144.00" arrivalLane="N_out_1" arrivalPos="189.60" arrivalSpeed="13.55" duration="21.00" routeLength="223.57" waitingTime="0.00" waitingCount="0" stopTime="0.00" timeLoss="4.18" rerouteNo="0" devices="vehroute_flow_9_phase1_E_straight.5 tripinfo_flow_9_phase1_E_straight.5" vType="moto" speedFactor="1.03" vaporized=""/>
    <tripinfo id="flow_5_phase1_S_straight.4" depart="101.00" departLane="S_in_0" departPos="135.24" departSpeed="1.68" departDelay="0.46" arrival="145.00" arrivalLane="N_out_0" arrivalPos="189.60" arrivalSpeed="13.35" duration="44.00" routeLength="264.76" waitingTime="3.00" waitingCount="1" stopTime="0.00" timeLoss="23.99" rerouteNo="0" devices="vehroute_flow_5_phase1_S_straight.4 tripinfo_flow_5_phase1_S_straight.4" vType="container" speedFactor="0.97" vaporized=""/>
    <tripinfo id="flow_11_phase1_E_right.2" depart="124.00" departLane="E_in_1" departPos="111.69" departSpeed="6.85" departDelay="0.54" arrival="147.00" arrivalLane="N_out_0" arrivalPos="189.60" arrivalSpeed="15.20" duration="23.00" routeLength="276.54" waitingTime="0.00" waitingCount="0" stopTime="0.00" timeLoss="4.87" rerouteNo="0" devices="vehroute_flow_11_phase1_E_right.2 tripinfo_flow_11_phase1_E_right.2" vType="moto" speedFactor="1.14" vaporized=""/>
    <tripinfo id="flow_10_phase1_E_left.2" depart="128.00" departLane="E_in_1" departPos="172.37" departSpeed="7.72" departDelay="0.70" arrival="149.00" arrivalLane="S_out_1" arrivalPos="189.60" arrivalSpeed="15.11" duration="21.00" routeLength="226.18" waitingTime="0.00" waitingCount="0" stopTime="0.00" timeLoss="5.31" rerouteNo="0" devices="vehroute_flow_10_phase1_E_left.2 tripinfo_flow_10_phase1_E_left.2" vType="moto" speedFactor="1.14" vaporized=""/>
    <tripinfo id="flow_4_phase1_N_uturn.1" depart="126.00" departLane="W_in_0" departPos="155.68" departSpeed="8.48" departDelay="0.52" arrival="150.00" arrivalLane="N_out_1" arrivalPos="189.60" arrivalSpeed="12.57" duration="24.00" routeLength="242.87" waitingTime="0.00" waitingCount="0" stopTime="0.00" timeLoss="5.04" rerouteNo="0" devices="vehroute_flow_4_phase1_N_uturn.1 tripinfo_flow_4_phase1_N_uturn.1" vType="moto" speedFactor="0.95" vaporized=""/>
    <tripinfo id="flow_13_phase1_W_straight.5" depart="128.00" departLane="W_in_0" departPos="161.41" departSpeed="1.65" departDelay="0.86" arrival="152.00" arrivalLane="N_out_1" arrivalPos="189.60" arrivalSpeed="13.58" duration="24.00" routeLength="237.14" waitingTime="0.00" waitingCount="0" stopTime="0.00" timeLoss="6.25" rerouteNo="0" devices="vehroute_flow_13_phase1_W_straight.5 tripinfo_flow_13_phase1_W_straight.5" vType="moto" speedFactor="1.04" vaporized=""/>
    <tripinfo id="flow_3_phase1_N_right.2" depart="130.00" departLane="E_in_0" departPos="87.76" departSpeed="12.03" departDelay="0.11" arrival="156.00" arrivalLane="E_out_1" arrivalPos="189.60" arrivalSpeed="14.10" duration="26.00" routeLength="296.11" waitingTime="0.00" waitingCount="0" stopTime="0.00" timeLoss="5.20" rerouteNo="0" devices="vehroute_flow_3_phase1_N_right.2 tripinfo_flow_3_phase1_N_right.2" vType="moto" speedFactor="1.10" vaporized=""/>
    <tripinfo id="flow_15_phase1_W_right.2" depart="125.00" departLane="W_in_1" departPos="19.51" departSpeed="7.49" departDelay="0.22" arrival="159.00" arrivalLane="S_out_0" arrivalPos="189.60" arrivalSpeed="12.52" duration="34.00" routeLength="368.72" waitingTime="0.00" waitingCount="0" stopTime="0.00" timeLoss="4.57" rerouteNo="0" devices="vehroute_flow_15_phase1_W_right.2 tripinfo_flow_15_phase1_W_right.2" vType="truck" speedFactor="0.94" vaporized=""/>
    <tripinfo id="flow_12_phase1_E_uturn.1" depart="126.00" departLane="E_in_1" departPos="65.57" departSpeed="2.39" departDelay="0.96" arrival="159.00" arrivalLane="E_out_1" arrivalPos="189.60" arrivalSpeed="13.75" duration="33.00" routeLength="318.30" waitingTime="0.00" waitingCount="0" stopTime="0.00" timeLoss="9.25" rerouteNo="0" devices="vehroute_flow_12_phase1_E_uturn.1 tripinfo_flow_12_phase1_E_uturn.1" vType="moto" speedFactor="1.03" vaporized=""/>
    <tripinfo id="flow_16_phase1_W_uturn.1" depart="126.00" departLane="W_in_0" departPos="64.25" departSpeed="5.83" departDelay="0.21" arrival="162.00" arrivalLane="W_out_0" arrivalPos="189.60" arrivalSpeed="12.07" duration="36.00" routeLength="319.62" waitingTime="0.00" waitingCount="0" stopTime="0.00" timeLoss="8.99" rerouteNo="0" devices="vehroute_flow_16_phase1_W_uturn.1 tripinfo_flow_16_phase1_W_uturn.1" vType="truck" speedFactor="0.89" vaporized=""/>
    <tripinfo id="flow_6_phase1_S_left.2" depart="128.00" departLane="S_in_1" departPos="174.17" departSpeed="9.64" departDelay="0.88" arrival="163.00" arrivalLane="W_out_1" arrivalPos="189.60" arrivalSpeed="14.00" duration="35.00" routeLength="224.38" waitingTime="12.00" waitingCount="1" stopTime="0.00" timeLoss="18.62" rerouteNo="0" devices="vehroute_flow_6_phase1_S_left.2 tripinfo_flow_6_phase1_S_left.2" vType="moto" speedFactor="1.07" vaporized=""/>
    <tripinfo id="flow_1_phase1_N_straight.5" depart="129.00" departLane="N_in_1" departPos="92.42" departSpeed="4.93" departDelay="0.60" arrival="164.00" arrivalLane="W_out_0" arrivalPos="189.60" arrivalSpeed="12.41" duration="35.00" routeLength="295.81" waitingTime="3.00" waitingCount="1" stopTime="0.00" timeLoss="10.19" rerouteNo="0" devices="vehroute_flow_1_phase1_N_straight.5 tripinfo_flow_1_phase1_N_straight.5" vType="moto" speedFactor="0.90" vaporized=""/>
    <tripinfo id="flow_2_phase1_N_left.2" depart="125.00" departLane="N_in_1" departPos="129.09" departSpeed="5.80" departDelay="0.82" arrival="165.00" arrivalLane="E_out_1" arrivalPos="189.60" arrivalSpeed="15.22" duration="40.00" routeLength="269.46" waitingTime="14.00" waitingCount="2" stopTime="0.00" timeLoss="21.24" rerouteNo="0" devices="vehroute_flow_2_phase1_N_left.2 tripinfo_flow_2_phase1_N_left.2" vType="emergency" speedFactor="1.10" vaporized=""/>
    <tripinfo id="flow_5_phase1_S_straight.5" depart="126.00" departLane="S_in_1" departPos="2.77" departSpeed="6.78" departDelay="0.32" arrival="165.00" arrivalLane="N_out_0" arrivalPos="189.60" arrivalSpeed="11.81" duration="39.00" routeLength="397.23" waitingTime="0.00" waitingCount="0" stopTime="0.00" timeLoss="6.53" rerouteNo="0" devices="vehroute_flow_5_phase1_S_straight.5 tripinfo_flow_5_phase1_S_straight.5" vType="moto" speedFactor="0.89" vaporized=""/>
    <tripinfo id="flow_8_phase1_S_uturn.1" depart="126.00" departLane="S_in_0" departPos="91.52" departSpeed="11.56" departDelay="0.74" arrival="166.00" arrivalLane="S_out_1" arrivalPos="189.60" arrivalSpeed="12.27" duration="40.00" routeLength="292.35" waitingTime="9.00" waitingCount="1" stopTime="0.00" timeLoss="16.29" rerouteNo="0" devices="vehroute_flow_8_phase1_S_uturn.1 tripinfo_flow_8_phase1_S_uturn.1" vType="moto" speedFactor="0.94" vaporized=""/>
    <tripinfo id="flow_7_phase1_S_right.2" depart="124.00" departLane="S_in_1" departPos="65.33" departSpeed="12.53" departDelay="0.52" arrival="168.00" arrivalLane="S_out_1" arrivalPos="189.60" arrivalSpeed="12.83" duration="44.00" routeLength="318.54" waitingTime="7.00" waitingCount="1" stopTime="0.00" timeLoss="19.87" rerouteNo="0" devices="vehroute_flow_7_phase1_S_right.2 tripinfo_flow_7_phase1_S_right.2" vType="moto" speedFactor="1.00" vaporized=""/>
    <tripinfo id="flow_14_phase1_W_left.2" depart="131.00" departLane="W_in_1" departPos="39.34" departSpeed="4.15" departDelay="0.02" arrival="178.00" arrivalLane="N_out_1" arrivalPos="189.60" arrivalSpeed="12.13" duration="47.00" routeLength="359.21" waitingTime="9.00" waitingCount="1" stopTime="0.00" timeLoss="16.73" rerouteNo="0" devices="vehroute_flow_14_phase1_W_left.2 tripinfo_flow_14_phase1_W_left.2" vType="car" speedFactor="0.90" vaporized=""/>
    <tripinfo id="flow_13_phase1_W_straight.6" depart="153.00" departLane="W_in_1" departPos="109.89" departSpeed="2.14" departDelay="0.43" arrival="180.00" arrivalLane="N_out_1" arrivalPos="189.60" arrivalSpeed="12.68" duration="27.00" routeLength="288.66" waitingTime="0.00" waitingCount="0" stopTime="0.00" timeLoss="4.40" rerouteNo="0" devices="vehroute_flow_13_phase1_W_straight.6 tripinfo_flow_13_phase1_W_straight.6" vType="car" speedFactor="0.98" vaporized=""/>
    <tripinfo id="flow_5_phase1_S_straight.6" depart="151.00" departLane="S_in_0" departPos="69.49" departSpeed="6.79" departDelay="0.18" arrival="188.00" arrivalLane="N_out_0" arrivalPos="189.60" arrivalSpeed="15.05" duration="37.00" routeLength="330.51" waitingTime="7.00" waitingCount="1" stopTime="0.00" timeLoss="14.88" rerouteNo="0" devices="vehroute_flow_5_phase1_S_straight.6 tripinfo_flow_5_phase1_S_straight.6" vType="moto" speedFactor="1.10" vaporized=""/>
    <tripinfo id="flow_1_phase1_N_straight.6" depart="155.00" departLane="N_in_1" departPos="21.74" departSpeed="10.75" departDelay="0.91" arrival="189.00" arrivalLane="W_out_0" arrivalPos="189.60" arrivalSpeed="12.85" duration="34.00" routeLength="366.49" waitingTime="0.00" waitingCount="0" stopTime="0.00" timeLoss="5.89" rerouteNo="0" devices="vehroute_flow_1_phase1_N_straight.6 tripinfo_flow_1_phase1_N_straight.6" vType="car" speedFactor="0.98" vaporized=""/>
    <tripinfo id="flow_9_phase1_E_straight.6" depart="147.00" departLane="N_in_0" departPos="61.32" departSpeed="6.33" departDelay="0.20" arrival="190.00" arrivalLane="N_out_1" arrivalPos="189.60" arrivalSpeed="13.44" duration="43.00" routeLength="322.55" waitingTime="10.00" waitingCount="1" stopTime="0.00" timeLoss="18.45" rerouteNo="0" devices="vehroute_flow_9_phase1_E_straight.6 tripinfo_flow_9_phase1_E_straight.6" vType="moto" speedFactor="1.02" vaporized=""/>
    <tripinfo id="flow_13_phase1_W_straight.7" depart="179.00" departLane="W_in_1" departPos="88.32" departSpeed="9.46" departDelay="1.00" arrival="212.00" arrivalLane="N_out_0" arrivalPos="189.60" arrivalSpeed="10.07" duration="33.00" routeLength="310.23" waitingTime="0.00" waitingCount="0" stopTime="0.00" timeLoss="3.66" rerouteNo="0" devices="vehroute_flow_13_phase1_W_straight.7 tripinfo_flow_13_phase1_W_straight.7" vType="moto" speedFactor="0.80" vaporized=""/>
    <tripinfo id="flow_7_phase1_S_right.3" depart="186.00" departLane="S_in_1" departPos="107.80" departSpeed="13.63" departDelay="0.78" arrival="213.00" arrivalLane="S_out_1" arrivalPos="189.60" arrivalSpeed="13.83" duration="27.00" routeLength="276.07" waitingTime="2.00" waitingCount="1" stopTime="0.00" timeLoss="7.71" rerouteNo="0" devices="vehroute_flow_7_phase1_S_right.3 tripinfo_flow_7_phase1_S_right.3" vType="moto" speedFactor="1.07" vaporized=""/>