<?xml version="1.0" encoding="UTF-8"?>

<!-- generated on 2025-12-09 20:38:31 by Eclipse SUMO sumo Version 1.18.0
<configuration xmlns:xsi="http://www.w3.org/2001/XMLSchema-instance" xsi:noNamespaceSchemaLocation="http://sumo.dlr.de/xsd/sumoConfiguration.xsd">

    <input>
        <net-file value="nets/60p2k/net.net.xml"/>
        <route-files value="nets/60p2k/route_temp_26_124611776755504_93502079.rou.xml"/>
    </input>

    <output>
        <summary-output value="result_ddqn_1.0_0.1/summary_ep_6.xml"/>
        <tripinfo-output value="result_ddqn_1.0_0.1/tripinfo_ep_6.xml"/>
        <vehroute-output value="result_ddqn_1.0_0.1/vehroute_ep_6.xml"/>
    </output>

    <time>
        <begin value="0"/>
    </time>

    <report>
        <verbose value="true"/>
        <no-warnings value="true"/>
        <no-step-log value="true"/>
    </report>

    <traci_server>
        <remote-port value="42371"/>
    </traci_server>

    <gui_only>
        <gui-settings-file value="nets/60p2k/gui-settings.xml"/>
        <quit-on-end value="true"/>
    </gui_only>

</configuration>
-->

<tripinfos xmlns:xsi="http://www.w3.org/2001/XMLSchema-instance" xsi:noNamespaceSchemaLocation="http://sumo.dlr.de/xsd/tripinfo_file.xsd">
    <tripinfo id="flow_3_phase1_N_right.0" depart="0.00" departLane="N_in_0" departPos="103.38" departSpeed="3.75" departDelay="0.00" arrival="24.00" arrivalLane="W_out_0" arrivalPos="189.60" arrivalSpeed="14.93" duration="24.00" routeLength="284.85" waitingTime="0.00" waitingCount="0" stopTime="0.00" timeLoss="4.55" rerouteNo="0" devices="vehroute_flow_3_phase1_N_right.0 tripinfo_flow_3_phase1_N_right.0" vType="car" speedFactor="1.09" vaporized=""/>
    <tripinfo id="flow_8_phase1_S_uturn.0" depart="0.00" departLane="S_in_0" departPos="120.11" departSpeed="4.48" departDelay="0.00" arrival="24.00" arrivalLane="S_out_1" arrivalPos="189.60" arrivalSpeed="13.35" duration="24.00" routeLength="263.76" waitingTime="0.00" waitingCount="0" stopTime="0.00" timeLoss="4.90" rerouteNo="0" devices="vehroute_flow_8_phase1_S_uturn.0 tripinfo_flow_8_phase1_S_uturn.0" vType="moto" speedFactor="1.05" vaporized=""/>
    <tripinfo id="flow_5_phase1_S_straight.0" depart="0.00" departLane="S_in_1" departPos="107.37" departSpeed="7.21" departDelay="0.00" arrival="25.00" arrivalLane="N_out_1" arrivalPos="189.60" arrivalSpeed="15.54" duration="25.00" routeLength="292.63" waitingTime="0.00" waitingCount="0" stopTime="0.00" timeLoss="6.40" rerouteNo="0" devices="vehroute_flow_5_phase1_S_straight.0 tripinfo_flow_5_phase1_S_straight.0" vType="moto" speedFactor="1.15" vaporized=""/>
    <tripinfo id="flow_6_phase1_S_left.0" depart="0.00" departLane="S_in_1" departPos="166.01" departSpeed="0.74" departDelay="0.00" arrival="25.00" arrivalLane="W_out_1" arrivalPos="189.60" arrivalSpeed="11.84" duration="25.00" routeLength="232.54" waitingTime="0.00" waitingCount="0" stopTime="0.00" timeLoss="4.35" rerouteNo="0" devices="vehroute_flow_6_phase1_S_left.0 tripinfo_flow_6_phase1_S_left.0" vType="moto" speedFactor="0.88" vaporized=""/>
    <tripinfo id="flow_4_phase1_N_uturn.0" depart="0.00" departLane="N_in_1" departPos="127.60" departSpeed="0.08" departDelay="0.00" arrival="32.00" arrivalLane="N_out_1" arrivalPos="189.60" arrivalSpeed="12.72" duration="32.00" routeLength="256.27" waitingTime="2.00" waitingCount="1" stopTime="0.00" timeLoss="10.49" rerouteNo="0" devices="vehroute_flow_4_phase1_N_uturn.0 tripinfo_flow_4_phase1_N_uturn.0" vType="car" speedFactor="0.92" vaporized=""/>
    <tripinfo id="flow_15_phase1_W_right.0" depart="0.00" departLane="W_in_0" departPos="108.38" departSpeed="2.63" departDelay="0.00" arrival="39.00" arrivalLane="S_out_0" arrivalPos="189.60" arrivalSpeed="11.14" duration="39.00" routeLength="279.85" waitingTime="6.00" waitingCount="1" stopTime="0.00" timeLoss="13.71" rerouteNo="0" devices="vehroute_flow_15_phase1_W_right.0 tripinfo_flow_15_phase1_W_right.0" vType="moto" speedFactor="0.85" vaporized=""/>
    <tripinfo id="flow_16_phase1_W_uturn.0" depart="0.00" departLane="W_in_0" departPos="126.68" departSpeed="11.71" departDelay="0.00" arrival="39.00" arrivalLane="W_out_1" arrivalPos="189.60" arrivalSpeed="14.32" duration="39.00" routeLength="257.19" waitingTime="10.00" waitingCount="1" stopTime="0.00" timeLoss="19.00" rerouteNo="0" devices="vehroute_flow_16_phase1_W_uturn.0 tripinfo_flow_16_phase1_W_uturn.0" vType="moto" speedFactor="1.04" vaporized=""/>
    <tripinfo id="flow_9_phase1_E_straight.0" depart="0.00" departLane="E_in_0" departPos="168.29" departSpeed="9.83" departDelay="0.00" arrival="41.00" arrivalLane="W_out_0" arrivalPos="189.60" arrivalSpeed="12.31" duration="41.00" routeLength="231.71" waitingTime="12.00" waitingCount="1" stopTime="0.00" timeLoss="22.18" rerouteNo="0" devices="vehroute_flow_9_phase1_E_straight.0 tripinfo_flow_9_phase1_E_straight.0" vType="truck" speedFactor="0.90" vaporized=""/>
    <tripinfo id="flow_13_phase1_W_straight.0" depart="0.00" departLane="W_in_0" departPos="24.53" departSpeed="3.79" departDelay="0.00" arrival="42.00" arrivalLane="E_out_0" arrivalPos="189.60" arrivalSpeed="11.41" duration="42.00" routeLength="375.47" waitingTime="0.00" waitingCount="0" stopTime="0.00" timeLoss="9.11" rerouteNo="0" devices="vehroute_flow_13_phase1_W_straight.0 tripinfo_flow_13_phase1_W_straight.0" vType="container" speedFactor="0.82" vaporized=""/>
    <tripinfo id="flow_14_phase1_W_left.0" depart="0.00" departLane="W_in_1" departPos="182.88" departSpeed="5.61" departDelay="0.00" arrival="43.00" arrivalLane="N_out_1" arrivalPos="189.60" arrivalSpeed="13.70" duration="43.00" routeLength="215.67" waitingTime="17.00" waitingCount="2" stopTime="0.00" timeLoss="26.21" rerouteNo="0" devices="vehroute_flow_14_phase1_W_left.0 tripinfo_flow_14_phase1_W_left.0" vType="moto" speedFactor="1.01" vaporized=""/>
    <tripinfo id="flow_10_phase1_E_left.0" depart="0.00" departLane="E_in_0" departPos="44.88" departSpeed="7.69" departDelay="0.00" arrival="48.00" arrivalLane="S_out_1" arrivalPos="189.60" arrivalSpeed="13.38" duration="48.00" routeLength="353.67" waitingTime="4.00" waitingCount="2" stopTime="0.00" timeLoss="22.15" rerouteNo="0" devices="vehroute_flow_10_phase1_E_left.0 tripinfo_flow_10_phase1_E_left.0" vType="truck" speedFactor="1.02" vaporized=""/>
    <tripinfo id="flow_11_phase1_E_right.0" depart="0.00" departLane="W_in_1" departPos="144.95" departSpeed="4.02" departDelay="0.00" arrival="48.00" arrivalLane="N_out_1" arrivalPos="189.60" arrivalSpeed="12.71" duration="48.00" routeLength="253.60" waitingTime="10.00" waitingCount="1" stopTime="0.00" timeLoss="27.96" rerouteNo="0" devices="vehroute_flow_11_phase1_E_right.0 tripinfo_flow_11_phase1_E_right.0" vType="bus" speedFactor="0.96" vaporized=""/>
    <tripinfo id="flow_2_phase1_N_left.0" depart="0.00" departLane="N_in_1" departPos="8.27" departSpeed="8.33" departDelay="0.00" arrival="49.00" arrivalLane="E_out_1" arrivalPos="189.60" arrivalSpeed="13.89" duration="49.00" routeLength="390.28" waitingTime="13.00" waitingCount="1" stopTime="0.00" timeLoss="20.46" rerouteNo="0" devices="vehroute_flow_2_phase1_N_left.0 tripinfo_flow_2_phase1_N_left.0" vType="moto" speedFactor="1.02" vaporized=""/>
    <tripinfo id="flow_5_phase1_S_straight.1" depart="26.00" departLane="S_in_1" departPos="31.93" departSpeed="9.28" departDelay="0.86" arrival="51.00" arrivalLane="N_out_1" arrivalPos="189.60" arrivalSpeed="15.60" duration="25.00" routeLength="368.07" waitingTime="0.00" waitingCount="0" stopTime="0.00" timeLoss="1.21" rerouteNo="0" devices="vehroute_flow_5_phase1_S_straight.1 tripinfo_flow_5_phase1_S_straight.1" vType="moto" speedFactor="1.19" vaporized=""/>
    <tripinfo id="flow_1_phase1_N_straight.0" depart="0.00" departLane="N_in_0" departPos="8.62" departSpeed="8.51" departDelay="0.00" arrival="56.00" arrivalLane="S_out_0" arrivalPos="189.60" arrivalSpeed="11.70" duration="56.00" routeLength="391.38" waitingTime="11.00" waitingCount="1" stopTime="0.00" timeLoss="22.59" rerouteNo="0" devices="vehroute_flow_1_phase1_N_straight.0 tripinfo_flow_1_phase1_N_straight.0" vType="bus" speedFactor="0.86" vaporized=""/>
    <tripinfo id="flow_1_phase1_N_straight.1" depart="26.00" departLane="N_in_1" departPos="58.36" departSpeed="11.64" departDelay="0.32" arrival="56.00" arrivalLane="S_out_1" arrivalPos="189.60" arrivalSpeed="11.91" duration="30.00" routeLength="341.64" waitingTime="0.00" waitingCount="0" stopTime="0.00" timeLoss="1.49" rerouteNo="0" devices="vehroute_flow_1_phase1_N_straight.1 tripinfo_flow_1_phase1_N_straight.1" vType="moto" speedFactor="0.87" vaporized=""/>
    <tripinfo id="flow_7_phase1_S_right.0" depart="0.00" departLane="S_in_0" departPos="8.76" departSpeed="8.07" departDelay="0.00" arrival="57.00" arrivalLane="E_out_0" arrivalPos="189.60" arrivalSpeed="11.33" duration="57.00" routeLength="379.47" waitingTime="12.00" waitingCount="1" stopTime="0.00" timeLoss="23.46" rerouteNo="0" devices="vehroute_flow_7_phase1_S_right.0 tripinfo_flow_7_phase1_S_right.0" vType="container" speedFactor="0.85" vaporized=""/>
    <tripinfo id="flow_13_phase1_W_straight.1" depart="26.00" departLane="W_in_1" departPos="121.65" departSpeed="2.86" departDelay="0.57" arrival="60.00" arrivalLane="E_out_0" arrivalPos="189.60" arrivalSpeed="15.14" duration="34.00" routeLength="278.35" waitingTime="6.00" waitingCount="1" stopTime="0.00" timeLoss="16.07" rerouteNo="0" devices="vehroute_flow_13_phase1_W_straight.1 tripinfo_flow_13_phase1_W_straight.1" vType="car" speedFactor="1.12" vaporized=""/>
    <tripinfo id="flow_9_phase1_E_straight.1" depart="25.00" departLane="E_in_0" departPos="131.13" departSpeed="9.54" departDelay="0.53" arrival="61.00" arrivalLane="W_out_0" arrivalPos="189.60" arrivalSpeed="15.18" duration="36.00" routeLength="268.87" waitingTime="10.00" waitingCount="1" stopTime="0.00" timeLoss="18.41" rerouteNo="0" devices="vehroute_flow_9_phase1_E_straight.1 tripinfo_flow_9_phase1_E_straight.1" vType="moto" speedFactor="1.16" vaporized=""/>
    <tripinfo id="flow_12_phase1_E_uturn.0" depart="0.00" departLane="E_in_0" departPos="5.65" departSpeed="13.76" departDelay="0.00" arrival="66.00" arrivalLane="E_out_1" arrivalPos="189.60" arrivalSpeed="14.25" duration="66.00" routeLength="378.22" waitingTime="19.00" waitingCount="4" stopTime="0.00" timeLoss="38.39" rerouteNo="0" devices="vehroute_flow_12_phase1_E_uturn.0 tripinfo_flow_12_phase1_E_uturn.0" vType="moto" speedFactor="1.03" vaporized=""/>
    <tripinfo id="flow_1_phase1_N_straight.2" depart="52.00" departLane="N_in_1" departPos="107.53" departSpeed="1.11" departDelay="0.64" arrival="78.00" arrivalLane="S_out_0" arrivalPos="189.60" arrivalSpeed="11.65" duration="26.00" routeLength="292.47" waitingTime="0.00" waitingCount="0" stopTime="0.00" timeLoss="3.27" rerouteNo="0" devices="vehroute_flow_1_phase1_N_straight.2 tripinfo_flow_1_phase1_N_straight.2" vType="moto" speedFactor="0.93" vaporized=""/>
    <tripinfo id="flow_5_phase1_S_straight.2" depart="51.00" departLane="S_in_1" departPos="12.70" departSpeed="12.41" departDelay="0.73" arrival="82.00" arrivalLane="N_out_0" arrivalPos="189.60" arrivalSpeed="12.57" duration="31.00" routeLength="387.30" waitingTime="0.00" waitingCount="0" stopTime="0.00" timeLoss="1.50" rerouteNo="0" devices="vehroute_flow_5_phase1_S_straight.2 tripinfo_flow_5_phase1_S_straight.2" vType="moto" speedFactor="0.96" vaporized=""/>
    <tripinfo id="flow_2_phase1_N_left.1" depart="63.00" departLane="N_in_1" departPos="128.68" departSpeed="3.06" departDelay="0.91" arrival="86.00" arrivalLane="E_out_1" arrivalPos="189.60" arrivalSpeed="14.23" duration="23.00" routeLength="269.87" waitingTime="0.00" waitingCount="0" stopTime="0.00" timeLoss="3.71" rerouteNo="0" devices="vehroute_flow_2_phase1_N_left.1 tripinfo_flow_2_phase1_N_left.1" vType="moto" speedFactor="1.04" vaporized=""/>
    <tripinfo id="flow_6_phase1_S_left.1" depart="64.00" departLane="S_in_1" departPos="110.92" departSpeed="11.99" departDelay="0.44" arrival="87.00" arrivalLane="W_out_1" arrivalPos="189.60" arrivalSpeed="13.37" duration="23.00" routeLength="287.63" waitingTime="0.00" waitingCount="0" stopTime="0.00" timeLoss="2.47" rerouteNo="0" devices="vehroute_flow_6_phase1_S_left.1 tripinfo_flow_6_phase1_S_left.1" vType="moto" speedFactor="1.05" vaporized=""/>
    <tripinfo id="flow_7_phase1_S_right.1" depart="62.00" departLane="S_in_0" departPos="8.88" departSpeed="2.82" departDelay="0.26" arrival="93.00" arrivalLane="E_out_0" arrivalPos="189.60" arrivalSpeed="15.00" duration="31.00" routeLength="379.35" waitingTime="0.00" waitingCount="0" stopTime="0.00" timeLoss="4.96" rerouteNo="0" devices="vehroute_flow_7_phase1_S_right.1 tripinfo_flow_7_phase1_S_right.1" vType="moto" speedFactor="1.12" vaporized=""/>
    <tripinfo id="flow_9_phase1_E_straight.2" depart="49.00" departLane="E_in_1" departPos="52.87" departSpeed="0.38" departDelay="0.07" arrival="98.00" arrivalLane="W_out_0" arrivalPos="189.60" arrivalSpeed="13.14" duration="49.00" routeLength="347.13" waitingTime="15.00" waitingCount="1" stopTime="0.00" timeLoss="23.41" rerouteNo="0" devices="vehroute_flow_9_phase1_E_straight.2 tripinfo_flow_9_phase1_E_straight.2" vType="moto" speedFactor="0.99" vaporized=""/>
    <tripinfo id="flow_15_phase1_W_right.1" depart="63.00" departLane="W_in_0" departPos="73.90" departSpeed="9.22" departDelay="0.61" arrival="102.00" arrivalLane="S_out_0" arrivalPos="189.60" arrivalSpeed="14.05" duration="39.00" routeLength="314.33" waitingTime="7.00" waitingCount="1" stopTime="0.00" timeLoss="16.73" rerouteNo="0" devices="vehroute_flow_15_phase1_W_right.1 tripinfo_flow_15_phase1_W_right.1" vType="moto" speedFactor="1.08" vaporized=""/>
    <tripinfo id="flow_13_phase1_W_straight.2" depart="51.00" departLane="W_in_1" departPos="59.51" departSpeed="13.32" departDelay="0.14" arrival="103.00" arrivalLane="E_out_0" arrivalPos="189.60" arrivalSpeed="13.39" duration="52.00" routeLength="340.49" waitingTime="15.00" waitingCount="1" stopTime="0.00" timeLoss="25.92" rerouteNo="0" devices="vehroute_flow_13_phase1_W_straight.2 tripinfo_flow_13_phase1_W_straight.2" vType="bus" speedFactor="0.97" vaporized=""/>
    <tripinfo id="flow_9_phase1_E_straight.3" depart="74.00" departLane="E_in_0" departPos="134.76" departSpeed="5.03" departDelay="0.60" arrival="103.00" arrivalLane="W_out_0" arrivalPos="189.60" arrivalSpeed="11.24" duration="29.00" routeLength="265.24" waitingTime="0.00" waitingCount="0" stopTime="0.00" timeLoss="6.21" rerouteNo="0" devices="vehroute_flow_9_phase1_E_straight.3 tripinfo_flow_9_phase1_E_straight.3" vType="bus" speedFactor="0.85" vaporized=""/>
    <tripinfo id="flow_5_phase1_S_straight.3" depart="76.00" departLane="S_in_1" departPos="108.76" departSpeed="13.07" departDelay="0.59" arrival="110.00" arrivalLane="N_out_0" arrivalPos="189.60" arrivalSpeed="14.65" duration="34.00" routeLength="291.24" waitingTime="8.00" waitingCount="1" stopTime="0.00" timeLoss="13.99" rerouteNo="0" devices="vehroute_flow_5_phase1_S_straight.3 tripinfo_flow_5_phase1_S_straight.3" vType="moto" speedFactor="1.08" vaporized=""/>
    <tripinfo id="flow_3_phase1_N_right.1" depart="65.00" departLane="N_in_0" departPos="19.85" departSpeed="3.71" departDelay="0.05" arrival="113.00" arrivalLane="W_out_0" arrivalPos="189.60" arrivalSpeed="11.85" duration="48.00" routeLength="368.38" waitingTime="8.00" waitingCount="1" stopTime="0.00" timeLoss="16.62" rerouteNo="0" devices="vehroute_flow_3_phase1_N_right.1 tripinfo_flow_3_phase1_N_right.1" vType="moto" speedFactor="0.88" vaporized=""/>
    <tripinfo id="flow_10_phase1_E_left.1" depart="64.00" departLane="E_in_1" departPos="185.21" departSpeed="3.70" departDelay="0.35" arrival="114.00" arrivalLane="S_out_0" arrivalPos="189.60" arrivalSpeed="9.94" duration="50.00" routeLength="213.34" waitingTime="19.00" waitingCount="2" stopTime="0.00" timeLoss="29.05" rerouteNo="0" devices="vehroute_flow_10_phase1_E_left.1 tripinfo_flow_10_phase1_E_left.1" vType="truck" speedFactor="0.77" vaporized=""/>
    <tripinfo id="flow_14_phase1_W_left.1" depart="66.00" departLane="W_in_1" departPos="175.36" departSpeed="7.25" departDelay="0.51" arrival="114.00" arrivalLane="N_out_1" arrivalPos="189.60" arrivalSpeed="12.58" duration="48.00" routeLength="223.19" waitingTime="12.00" waitingCount="2" stopTime="0.00" timeLoss="29.64" rerouteNo="0" devices="vehroute_flow_14_phase1_W_left.1 tripinfo_flow_14_phase1_W_left.1" vType="container" speedFactor="0.91" vaporized=""/>
    <tripinfo id="flow_1_phase1_N_straight.3" depart="78.00" departLane="N_in_0" departPos="19.25" departSpeed="10.19" departDelay="0.96" arrival="115.00" arrivalLane="S_out_1" arrivalPos="189.60" arrivalSpeed="13.99" duration="37.00" routeLength="380.75" waitingTime="0.00" waitingCount="0" stopTime="0.00" timeLoss="10.44" rerouteNo="0" devices="vehroute_flow_1_phase1_N_straight.3 tripinfo_flow_1_phase1_N_straight.3" vType="car" speedFactor="1.05" vaporized=""/>
    <tripinfo id="flow_13_phase1_W_straight.3" depart="77.00" departLane="W_in_1" departPos="77.94" departSpeed="4.74" departDelay="0.71" arrival="123.00" arrivalLane="E_out_0" arrivalPos="189.60" arrivalSpeed="15.49" duration="46.00" routeLength="322.06" waitingTime="14.00" waitingCount="1" stopTime="0.00" timeLoss="25.25" rerouteNo="0" devices="vehroute_flow_13_phase1_W_straight.3 tripinfo_flow_13_phase1_W_straight.3" vType="moto" speedFactor="1.20" vaporized=""/>
    <tripinfo id="flow_9_phase1_E_straight.4" depart="98.00" departLane="E_in_0" departPos="148.08" departSpeed="8.76" departDelay="0.14" arrival="129.00" arrivalLane="W_out_0" arrivalPos="189.60" arrivalSpeed="12.58" duration="31.00" routeLength="251.92" waitingTime="0.00" waitingCount="0" stopTime="0.00" timeLoss="11.16" rerouteNo="0" devices="vehroute_flow_9_phase1_E_straight.4 tripinfo_flow_9_phase1_E_straight.4" vType="bus" speedFactor="0.95" vaporized=""/>
    <tripinfo id="flow_13_phase1_W_straight.4" depart="102.00" departLane="W_in_0" departPos="167.23" departSpeed="1.71" departDelay="0.28" arrival="130.00" arrivalLane="E_out_0" arrivalPos="189.60" arrivalSpeed="11.87" duration="28.00" routeLength="232.77" waitingTime="0.00" waitingCount="0" stopTime="0.00" timeLoss="8.21" rerouteNo="0" devices="vehroute_flow_13_phase1_W_straight.4 tripinfo_flow_13_phase1_W_straight.4" vType="bus" speedFactor="0.87" vaporized=""/>
    <tripinfo id="flow_9_phase1_E_straight.5" depart="123.00" departLane="E_in_0" departPos="185.47" departSpeed="9.65" departDelay="0.67" arrival="139.00" arrivalLane="W_out_0" arrivalPos="189.60" arrivalSpeed="13.25" duration="16.00" routeLength="214.53" waitingTime="0.00" waitingCount="0" stopTime="0.00" timeLoss="0.95" rerouteNo="0" devices="vehroute_flow_9_phase1_E_straight.5 tripinfo_flow_9_phase1_E_straight.5" vType="moto" speedFactor="1.03" vaporized=""/>
    <tripinfo id="flow_11_phase1_E_right.1" depart="62.00" departLane="W_in_1" departPos="66.71" departSpeed="7.87" departDelay="0.27" arrival="141.00" arrivalLane="N_out_0" arrivalPos="189.60" arrivalSpeed="10.55" duration="79.00" routeLength="331.84" waitingTime="17.00" waitingCount="4" stopTime="0.00" timeLoss="47.75" rerouteNo="0" devices="vehroute_flow_11_phase1_E_right.1 tripinfo_flow_11_phase1_E_right.1" vType="container" speedFactor="0.78" vaporized=""/>
    <tripinfo id="flow_4_phase1_N_uturn.1" depart="126.00" departLane="N_in_0" departPos="155.68" departSpeed="8.48" departDelay="0.52" arrival="149.00" arrivalLane="N_out_1" arrivalPos="189.60" arrivalSpeed="12.62" duration="23.00" routeLength="228.19" waitingTime="0.00" waitingCount="0" stopTime="0.00" timeLoss="4.89" rerouteNo="0" devices="vehroute_flow_4_phase1_N_uturn.1 tripinfo_flow_4_phase1_N_uturn.1" vType="moto" speedFactor="0.95" vaporized=""/>
    <tripinfo id="flow_1_phase1_N_straight.4" depart="103.00" departLane="N_in_0" departPos="8.08" departSpeed="6.13" departDelay="0.28" arrival="152.00" arrivalLane="S_out_0" arrivalPos="189.60" arrivalSpeed="12.64" duration="49.00" routeLength="391.92" waitingTime="6.00" waitingCount="1" stopTime="0.00" timeLoss="18.09" rerouteNo="0" devices="vehroute_flow_1_phase1_N_straight.4 tripinfo_flow_1_phase1_N_straight.4" vType="truck" speedFactor="0.92" vaporized=""/>
    <tripinfo id="flow_7_phase1_S_right.2" depart="124.00" departLane="S_in_1" departPos="171.48" departSpeed="2.13" departDelay="0.52" arrival="153.00" arrivalLane="E_out_0" arrivalPos="189.60" arrivalSpeed="13.57" duration="29.00" routeLength="216.75" waitingTime="5.00" waitingCount="1" stopTime="0.00" timeLoss="12.52" rerouteNo="0" devices="vehroute_flow_7_phase1_S_right.2 tripinfo_flow_7_phase1_S_right.2" vType="moto" speedFactor="1.00" vaporized=""/>
    <tripinfo id="flow_2_phase1_N_left.2" depart="125.00" departLane="N_in_0" departPos="71.94" departSpeed="4.24" departDelay="0.82" arrival="153.00" arrivalLane="E_out_1" arrivalPos="189.60" arrivalSpeed="14.82" duration="28.00" routeLength="326.61" waitingTime="0.00" waitingCount="0" stopTime="0.00" timeLoss="5.98" rerouteNo="0" devices="vehroute_flow_2_phase1_N_left.2 tripinfo_flow_2_phase1_N_left.2" vType="emergency" speedFactor="1.10" vaporized=""/>
    <tripinfo id="flow_5_phase1_S_straight.4" depart="101.00" departLane="S_in_1" departPos="23.57" departSpeed="9.61" departDelay="0.46" arrival="154.00" arrivalLane="N_out_0" arrivalPos="189.60" arrivalSpeed="13.22" duration="53.00" routeLength="376.43" waitingTime="12.00" waitingCount="1" stopTime="0.00" timeLoss="24.94" rerouteNo="0" devices="vehroute_flow_5_phase1_S_straight.4 tripinfo_flow_5_phase1_S_straight.4" vType="container" speedFactor="0.97" vaporized=""/>
    <tripinfo id="flow_3_phase1_N_right.2" depart="130.00" departLane="N_in_0" departPos="87.76" departSpeed="12.03" departDelay="0.11" arrival="154.00" arrivalLane="W_out_0" arrivalPos="189.60" arrivalSpeed="15.11" duration="24.00" routeLength="300.47" waitingTime="0.00" waitingCount="0" stopTime="0.00" timeLoss="3.03" rerouteNo="0" devices="vehroute_flow_3_phase1_N_right.2 tripinfo_flow_3_phase1_N_right.2" vType="moto" speedFactor="1.10" vaporized=""/>
    <tripinfo id="flow_6_phase1_S_left.2" depart="128.00" departLane="S_in_1" departPos="174.17" departSpeed="0.34" departDelay="0.88" arrival="156.00" arrivalLane="W_out_1" arrivalPos="189.60" arrivalSpeed="14.15" duration="28.00" routeLength="224.38" waitingTime="2.00" waitingCount="1" stopTime="0.00" timeLoss="11.49" rerouteNo="0" devices="vehroute_flow_6_phase1_S_left.2 tripinfo_flow_6_phase1_S_left.2" vType="moto" speedFactor="1.07" vaporized=""/>
    <tripinfo id="flow_11_phase1_E_right.2" depart="124.00" departLane="W_in_0" departPos="81.69" departSpeed="10.54" departDelay="0.54" arrival="158.00" arrivalLane="N_out_1" arrivalPos="189.60" arrivalSpeed="15.77" duration="34.00" routeLength="316.86" waitingTime="7.00" waitingCount="1" stopTime="0.00" timeLoss="13.62" rerouteNo="0" devices="vehroute_flow_11_phase1_E_right.2 tripinfo_flow_11_phase1_E_right.2" vType="moto" speedFactor="1.14" vaporized=""/>
    <tripinfo id="flow_8_phase1_S_uturn.1" depart="126.00" departLane="S_in_0" departPos="91.52" departSpeed="11.56" departDelay="0.74" arrival="159.00" arrivalLane="S_out_1" arrivalPos="189.60" arrivalSpeed="12.44" duration="33.00" routeLength="292.35" waitingTime="0.00" waitingCount="0" stopTime="0.00" timeLoss="8.57" rerouteNo="0" devices="vehroute_flow_8_phase1_S_uturn.1 tripinfo_flow_8_phase1_S_uturn.1" vType="moto" speedFactor="0.94" vaporized=""/>
    <tripinfo id="flow_13_phase1_W_straight.5" depart="128.00" departLane="W_in_0" departPos="161.41" departSpeed="1.65" departDelay="0.86" arrival="160.00" arrivalLane="E_out_0" arrivalPos="189.60" arrivalSpeed="13.17" duration="32.00" routeLength="238.59" waitingTime="7.00" waitingCount="1" stopTime="0.00" timeLoss="14.64" rerouteNo="0" devices="vehroute_flow_13_phase1_W_straight.5 tripinfo_flow_13_phase1_W_straight.5" vType="moto" speedFactor="1.04" vaporized=""/>
    <tripinfo id="flow_12_phase1_E_uturn.1" depart="126.00" departLane="E_in_1" departPos="65.57" departSpeed="2.39" departDelay="0.96" arrival="163.00" arrivalLane="E_out_1" arrivalPos="189.60" arrivalSpeed="14.05" duration="37.00" routeLength="318.30" waitingTime="3.00" waitingCount="1" stopTime="0.00" timeLoss="12.87" rerouteNo="0" devices="vehroute_flow_12_phase1_E_uturn.1 tripinfo_flow_12_phase1_E_uturn.1" vType="moto" speedFactor="1.03" vaporized=""/>
    <tripinfo id="flow_10_phase1_E_left.2" depart="128.00" departLane="E_in_1" departPos="172.37" departSpeed="7.72" departDelay="0.70" arrival="163.00" arrivalLane="S_out_1" arrivalPos="189.60" arrivalSpeed="15.83" duration="35.00" routeLength="226.18" waitingTime="11.00" waitingCount="2" stopTime="0.00" timeLoss="19.29" rerouteNo="0" devices="vehroute_flow_10_phase1_E_left.2 tripinfo_flow_10_phase1_E_left.2" vType="moto" speedFactor="1.14" vaporized=""/>
    <tripinfo id="flow_15_phase1_W_right.2" depart="125.00" departLane="W_in_1" departPos="19.51" departSpeed="7.74" departDelay="0.22" arrival="165.00" arrivalLane="S_out_0" arrivalPos="189.60" arrivalSpeed="13.03" duration="40.00" routeLength="368.72" waitingTime="0.00" waitingCount="0" stopTime="0.00" timeLoss="9.85" rerouteNo="0" devices="vehroute_flow_15_phase1_W_right.2 tripinfo_flow_15_phase1_W_right.2" vType="truck" speedFactor="0.94" vaporized=""/>
    <tripinfo id="flow_16_phase1_W_uturn.1" depart="126.00" departLane="W_in_0" departPos="64.25" departSpeed="5.83" departDelay="0.21" arrival="166.00" arrivalLane="W_out_1" arrivalPos="189.60" arrivalSpeed="12.19" duration="40.00" routeLength="319.62" waitingTime="0.00" waitingCount="0" stopTime="0.00" timeLoss="13.31" rerouteNo="0" devices="vehroute_flow_16_phase1_W_uturn.1 tripinfo_flow_16_phase1_W_uturn.1" vType="truck" speedFactor="0.89" vaporized=""/>
    <tripinfo id="flow_14_phase1_W_left.2" depart="131.00" departLane="W_in_1" departPos="39.34" departSpeed="4.15" departDelay="0.02" arrival="169.00" arrivalLane="N_out_1" arrivalPos="189.60" arrivalSpeed="11.80" duration="38.00" routeLength="359.21" waitingTime="0.00" waitingCount="0" stopTime="0.00" timeLoss="8.33" rerouteNo="0" devices="vehroute_flow_14_phase1_W_left.2 tripinfo_flow_14_phase1_W_left.2" vType="car" speedFactor="0.90" vaporized=""/>
    <tripinfo id="flow_5_phase1_S_straight.5" depart="126.00" departLane="S_in_1" departPos="2.77" departSpeed="6.78" departDelay="0.32" arrival="175.00" arrivalLane="N_out_0" arrivalPos="189.60" arrivalSpeed="11.65" duration="49.00" routeLength="397.23" waitingTime="9.00" waitingCount="1" stopTime="0.00" timeLoss="16.27" rerouteNo="0" devices="vehroute_flow_5_phase1_S_straight.5 tripinfo_flow_5_phase1_S_straight.5" vType="moto" speedFactor="0.89" vaporized=""/>
    <tripinfo id="flow_1_phase1_N_straight.5" depart="129.00" departLane="N_in_1" departPos="92.42" departSpeed="4.93" departDelay="0.60" arrival="175.00" arrivalLane="S_out_0" arrivalPos="189.60" arrivalSpeed="11.27" duration="46.00" routeLength="307.58" waitingTime="15.00" waitingCount="1" stopTime="0.00" timeLoss="21.11" rerouteNo="0" devices="vehroute_flow_1_phase1_N_straight.5 tripinfo_flow_1_phase1_N_straight.5" vType="moto" speedFactor="0.90" vaporized=""/>
    <tripinfo id="flow_5_phase1_S_straight.6" depart="151.00" departLane="S_in_0" departPos="69.49" departSpeed="6.79" departDelay="0.18" arrival="176.00" arrivalLane="N_out_0" arrivalPos="189.60" arrivalSpeed="13.93" duration="25.00" routeLength="330.51" waitingTime="0.00" waitingCount="0" stopTime="0.00" timeLoss="3.08" rerouteNo="0" devices="vehroute_flow_5_phase1_S_straight.6 tripinfo_flow_5_phase1_S_straight.6" vType="moto" speedFactor="1.10" vaporized=""/>
    <tripinfo id="flow_1_phase1_N_straight.6" depart="155.00" departLane="N_in_1" departPos="21.74" departSpeed="10.75" departDelay="0.91" arrival="184.00" arrivalLane="S_out_0" arrivalPos="189.60" arrivalSpeed="13.43" duration="29.00" routeLength="378.26" waitingTime="0.00" waitingCount="0" stopTime="0.00" timeLoss="1.21" rerouteNo="0" devices="vehroute_flow_1_phase1_N_straight.6 tripinfo_flow_1_phase1_N_straight.6" vType="car" speedFactor="0.98" vaporized=""/>
    <tripinfo id="flow_9_phase1_E_straight.6" depart="147.00" departLane="E_in_0" departPos="61.32" departSpeed="6.33" departDelay="0.20" arrival="196.00" arrivalLane="W_out_0" arrivalPos="189.60" arrivalSpeed="13.96" duration="49.00" routeLength="338.68" waitingTime="16.00" waitingCount="1" stopTime="0.00" timeLoss="24.90" rerouteNo="0" devices="vehroute_flow_9_phase1_E_straight.6 tripinfo_flow_9_phase1_E_straight.6" vType="moto" speedFactor="1.02" vaporized=""/>
    <tripinfo id="flow_13_phase1_W_straight.6" depart="153.00" departLane="W_in_1" departPos="109.89" departSpeed="2.14" departDelay="0.43" arrival="197.00" arrivalLane="E_out_0" arrivalPos="189.60" arrivalSpeed="12.55" duration="44.00" routeLength="290.11" waitingTime="13.00" waitingCount="1" stopTime="0.00" timeLoss="22.02" rerouteNo="0" devices="vehroute_flow_13_phase1_W_straight.6 tripinfo_flow_13_phase1_W_straight.6" vType="car" speedFactor="0.98" vaporized=""/>
    <tripinfo id="flow_9_phase1_E_straight.7" depart="172.00" departLane="E_in_0" departPos="43.18" departSpeed="3.17" departDelay="0.74" arrival="201.00" arrivalLane="W_out_0" arrivalPos="189.60" arrivalSpeed="13.92" duration="29.00" routeLength="356.82" waitingTime="0.00" waitingCount="0" stopTime="0.00" timeLoss="2.98" rerouteNo="0" devices="vehroute_flow_9_phase1_E_straight.7 tripinfo_flow_9_phase1_E_straight.7" vType="moto" speedFactor="1.01" vaporized=""/>
    <tripinfo id="flow_1_phase1_N_straight.7" depart="180.00" departLane="N_in_0" departPos="178.36" departSpeed="3.52" departDelay="0.23" arrival="209.00" arrivalLane="S_out_0" arrivalPos="189.60" arrivalSpeed="14.49" duration="29.00" routeLength="221.64" waitingTime="6.00" waitingCount="1" stopTime="0.00" timeLoss="13.58" rerouteNo="0" devices="vehroute_flow_1_phase1_N_straight.7 tripinfo_flow_1_phase1_N_straight.7" vType="moto" speedFactor="1.06" vaporized=""/>