<?xml version="1.0" encoding="UTF-8"?>

<!-- generated on 2025-12-09 20:40:13 by Eclipse SUMO sumo Version 1.18.0
<configuration xmlns:xsi="http://www.w3.org/2001/XMLSchema-instance" xsi:noNamespaceSchemaLocation="http://sumo.dlr.de/xsd/sumoConfiguration.xsd">

    <input>
        <net-file value="nets/60p2k/net.net.xml"/>
        <route-files value="nets/60p2k/route_temp_26_124611776755504_93502079.rou.xml"/>
    </input>

    <output>
        <summary-output value="result_ddqn_1.0_0.1/summary_ep_10.xml"/>
        <tripinfo-output value="result_ddqn_1.0_0.1/tripinfo_ep_10.xml"/>
        <vehroute-output value="result_ddqn_1.0_0.1/vehroute_ep_10.xml"/>
    </output>

    <time>
        <begin value="0"/>
    </time>

    <report>
        <verbose value="true"/>
        <no-warnings value="true"/>
        <no-step-log value="true"/>
    </report>

    <traci_server>
        <remote-port value="54837"/>
    </traci_server>

    <gui_only>
        <gui-settings-file value="nets/60p2k/gui-settings.xml"/>
        <quit-on-end value="true"/>
    </gui_only>

</configuration>
-->

<routes xmlns:xsi="http://www.w3.org/2001/XMLSchema-instance" xsi:noNamespaceSchemaLocation="http://sumo.dlr.de/xsd/routes_file.xsd">
    <vehicle id="flow_8_phase1_S_uturn.0" type="moto" depart="0.00" departLane="0" departPos="120.1072" departSpeed="4.4837" speedFactor="1.0505" arrival="24.00">
        <route edges="S_in S_out"/>
    </vehicle>

    <vehicle id="flow_5_phase1_S_straight.0" type="moto" depart="0.00" departLane="1" departPos="107.3659" departSpeed="7.2113" speedFactor="1.1475" arrival="25.00">
        <route edges="S_in N_out"/>
    </vehicle>

    <vehicle id="flow_6_phase1_S_left.0" type="moto" depart="0.00" departLane="1" departPos="166.0107" departSpeed="0.7376" speedFactor="0.8806" arrival="25.00">
        <route edges="S_in W_out"/>
    </vehicle>

    <vehicle id="flow_4_phase1_N_uturn.0" type="car" depart="0.00" departLane="1" departPos="127.6015" departSpeed="0.0774" speedFactor="0.9228" arrival="32.00">
        <route edges="N_in N_out"/>
    </vehicle>

    <vehicle id="flow_3_phase1_N_right.0" type="car" depart="0.00" departLane="0" departPos="103.3842" departSpeed="3.7523" speedFactor="1.0907" arrival="35.00">
        <route edges="E_in S_out"/>
    </vehicle>

    <vehicle id="flow_16_phase1_W_uturn.0" type="moto" depart="0.00" departLane="0" departPos="135.6701" departSpeed="9.6426" speedFactor="1.0383" arrival="37.00">
        <route edges="W_in W_out"/>
    </vehicle>

    <vehicle id="flow_15_phase1_W_right.0" type="moto" depart="0.00" departLane="1" departPos="153.8984" departSpeed="6.7313" speedFactor="0.8472" arrival="39.00">
        <route edges="W_in S_out"/>
    </vehicle>

    <vehicle id="flow_9_phase1_E_straight.0" type="truck" depart="0.00" departLane="0" departPos="168.2937" departSpeed="9.8263" speedFactor="0.8990" arrival="41.00">
        <route edges="E_in W_out"/>
    </vehicle>

    <vehicle id="flow_11_phase1_E_right.0" type="bus" depart="0.00" departLane="1" departPos="144.9496" departSpeed="4.0187" speedFactor="0.9581" arrival="42.00">
        <route edges="E_in N_out"/>
    </vehicle>

    <vehicle id="flow_12_phase1_E_uturn.0" type="moto" depart="0.00" departLane="0" departPos="5.6544" departSpeed="13.7593" speedFactor="1.0348" arrival="43.00">
        <route edges="W_in S_out"/>
    </vehicle>

    <vehicle id="flow_14_phase1_W_left.0" type="moto" depart="0.00" departLane="1" departPos="42.3057" departSpeed="3.7077" speedFactor="1.0101" arrival="43.00">
        <route edges="W_in N_out"/>
    </vehicle>

    <vehicle id="flow_13_phase1_W_straight.0" type="container" depart="0.00" departLane="0" departPos="77.991" departSpeed="3.7887" speedFactor="0.8227" arrival="46.00">
        <route edges="W_in E_out"/>
    </vehicle>

    <vehicle id="flow_5_phase1_S_straight.1" type="moto" depart="26.00" departLane="1" departPos="181.05" departSpeed="2.6944" speedFactor="1.1853" arrival="50.00">
        <route edges="S_in N_out"/>
    </vehicle>

    <vehicle id="flow_10_phase1_E_left.0" type="truck" depart="0.00" departLane="0" departPos="44.8816" departSpeed="7.6878" speedFactor="1.0161" arrival="51.00">
        <route edges="E_in S_out"/>
    </vehicle>

    <vehicle id="flow_1_phase1_N_straight.0" type="bus" depart="0.00" departLane="0" departPos="8.6229" departSpeed="8.5053" speedFactor="0.8588" arrival="56.00">
        <route edges="N_in S_out"/>
    </vehicle>

    <vehicle id="flow_2_phase1_N_left.0" type="moto" depart="0.00" departLane="1" departPos="8.2688" departSpeed="8.3291" speedFactor="1.0157" arrival="56.00">
        <route edges="N_in E_out"/>
    </vehicle>

    <vehicle id="flow_7_phase1_S_right.0" type="container" depart="0.00" departLane="0" departPos="8.759" departSpeed="8.0654" speedFactor="0.8488" arrival="56.00">
        <route edges="S_in E_out"/>
    </vehicle>

    <vehicle id="flow_1_phase1_N_straight.1" type="moto" depart="26.00" departLane="0" departPos="93.3916" departSpeed="3.7336" speedFactor="0.8727" arrival="59.00">
        <route edges="N_in S_out"/>
    </vehicle>

    <vehicle id="flow_13_phase1_W_straight.1" type="car" depart="26.00" departLane="1" departPos="28.7874" departSpeed="10.0051" speedFactor="1.1218" arrival="60.00">
        <route edges="W_in E_out"/>
    </vehicle>

    <vehicle id="flow_9_phase1_E_straight.1" type="moto" depart="25.00" departLane="1" departPos="177.286" departSpeed="6.5373" speedFactor="1.1582" arrival="61.00">
        <route edges="E_in W_out"/>
    </vehicle>

    <vehicle id="flow_9_phase1_E_straight.2" type="moto" depart="49.00" departLane="1" departPos="103.6674" departSpeed="3.8519" speedFactor="0.9938" arrival="74.00">
        <route edges="E_in W_out"/>
    </vehicle>

    <vehicle id="flow_13_phase1_W_straight.2" type="bus" depart="51.00" departLane="1" departPos="64.277" departSpeed="4.213" speedFactor="0.9657" arrival="81.00">
        <route edges="W_in E_out"/>
    </vehicle>

    <vehicle id="flow_5_phase1_S_straight.2" type="moto" depart="51.00" departLane="0" departPos="33.9342" departSpeed="0.8958" speedFactor="0.9623" arrival="84.00">
        <route edges="S_in N_out"/>
    </vehicle>

    <vehicle id="flow_1_phase1_N_straight.2" type="moto" depart="52.00" departLane="1" departPos="39.2795" departSpeed="7.315" speedFactor="0.9279" arrival="86.00">
        <route edges="N_in S_out"/>
    </vehicle>

    <vehicle id="flow_2_phase1_N_left.1" type="moto" depart="63.00" departLane="0" departPos="80.2425" departSpeed="9.7779" speedFactor="1.0365" arrival="88.00">
        <route edges="N_in E_out"/>
    </vehicle>

    <vehicle id="flow_6_phase1_S_left.1" type="moto" depart="64.00" departLane="1" departPos="79.0964" departSpeed="8.5001" speedFactor="1.0453" arrival="89.00">
        <route edges="S_in W_out"/>
    </vehicle>

    <vehicle id="flow_7_phase1_S_right.1" type="moto" depart="62.00" departLane="0" departPos="15.1679" departSpeed="0.7311" speedFactor="1.1228" arrival="93.00">
        <route edges="S_in E_out"/>
    </vehicle>

    <vehicle id="flow_15_phase1_W_right.1" type="moto" depart="63.00" departLane="1" departPos="97.231" departSpeed="5.8444" speedFactor="1.0788" arrival="96.00">
        <route edges="W_in S_out"/>
    </vehicle>

    <vehicle id="flow_13_phase1_W_straight.3" type="moto" depart="77.00" departLane="0" departPos="132.6219" departSpeed="5.486" speedFactor="1.2027" arrival="97.00">
        <route edges="W_in E_out"/>
    </vehicle>

    <vehicle id="flow_11_phase1_E_right.1" type="container" depart="62.00" departLane="0" departPos="54.9911" departSpeed="3.8367" speedFactor="0.7845" arrival="102.00">
        <route edges="E_in N_out"/>
    </vehicle>

    <vehicle id="flow_9_phase1_E_straight.3" type="bus" depart="74.00" departLane="0" departPos="86.4153" departSpeed="8.4123" speedFactor="0.8515" arrival="104.00">
        <route edges="E_in W_out"/>
    </vehicle>

    <vehicle id="flow_3_phase1_N_right.1" type="moto" depart="65.00" departLane="0" departPos="166.0021" departSpeed="1.2818" speedFactor="0.8806" arrival="105.00">
        <route edges="E_in S_out"/>
    </vehicle>

    <vehicle id="flow_10_phase1_E_left.1" type="truck" depart="64.00" departLane="0" departPos="4.5211" departSpeed="10.4074" speedFactor="0.7665" arrival="110.00">
        <route edges="E_in S_out"/>
    </vehicle>

    <vehicle id="flow_5_phase1_S_straight.3" type="moto" depart="76.00" departLane="0" departPos="56.1823" departSpeed="8.583" speedFactor="1.0764" arrival="110.00">
        <route edges="S_in N_out"/>
    </vehicle>

    <vehicle id="flow_1_phase1_N_straight.3" type="car" depart="78.00" departLane="0" departPos="125.4807" departSpeed="6.7924" speedFactor="1.0479" arrival="113.00">
        <route edges="N_in S_out"/>
    </vehicle>

    <vehicle id="flow_14_phase1_W_left.1" type="container" depart="66.00" departLane="0" departPos="93.4122" departSpeed="11.7583" speedFactor="0.9146" arrival="115.00">
        <route edges="W_in N_out"/>
    </vehicle>

    <vehicle id="flow_9_phase1_E_straight.4" type="bus" depart="98.00" departLane="1" departPos="135.0364" departSpeed="3.7231" speedFactor="0.9525" arrival="124.00">
        <route edges="E_in W_out"/>
    </vehicle>

    <vehicle id="flow_13_phase1_W_straight.4" type="bus" depart="102.00" departLane="0" departPos="91.0122" departSpeed="4.4892" speedFactor="0.8691" arrival="131.00">
        <route edges="W_in E_out"/>
    </vehicle>

    <vehicle id="flow_5_phase1_S_straight.5" type="moto" depart="126.00" departLane="0" departPos="168.2148" departSpeed="0.1806" speedFactor="0.8882" arrival="149.00">
        <route edges="S_in N_out"/>
    </vehicle>

    <vehicle id="flow_1_phase1_N_straight.4" type="truck" depart="103.00" departLane="0" departPos="128.0429" departSpeed="4.9925" speedFactor="0.9194" arrival="152.00">
        <route edges="N_in S_out"/>
    </vehicle>

    <vehicle id="flow_4_phase1_N_uturn.1" type="moto" depart="126.00" departLane="0" departPos="179.131" departSpeed="0.967" speedFactor="0.9517" arrival="152.00">
        <route edges="N_in N_out"/>
    </vehicle>

    <vehicle id="flow_2_phase1_N_left.2" type="emergency" depart="125.00" departLane="1" departPos="112.3734" departSpeed="10.3998" speedFactor="1.0989" arrival="153.00">
        <route edges="N_in E_out"/>
    </vehicle>

    <vehicle id="flow_5_phase1_S_straight.4" type="container" depart="101.00" departLane="0" departPos="26.7631" departSpeed="9.623" speedFactor="0.9706" arrival="154.00">
        <route edges="S_in N_out"/>
    </vehicle>

    <vehicle id="flow_7_phase1_S_right.2" type="moto" depart="124.00" departLane="0" departPos="125.7621" departSpeed="4.7721" speedFactor="0.9964" arrival="154.00">
        <route edges="S_in E_out"/>
    </vehicle>

    <vehicle id="flow_6_phase1_S_left.2" type="moto" depart="128.00" departLane="1" departPos="92.2234" departSpeed="0.173" speedFactor="1.0668" arrival="154.00">
        <route edges="S_in W_out"/>
    </vehicle>

    <vehicle id="flow_1_phase1_N_straight.5" type="moto" depart="129.00" departLane="1" departPos="148.6531" departSpeed="6.1115" speedFactor="0.9020" arrival="155.00">
        <route edges="N_in S_out"/>
    </vehicle>

    <vehicle id="flow_11_phase1_E_right.2" type="moto" depart="124.00" departLane="0" departPos="52.573" departSpeed="9.361" speedFactor="1.1432" arrival="158.00">
        <route edges="E_in N_out"/>
    </vehicle>

    <vehicle id="flow_9_phase1_E_straight.5" type="moto" depart="123.00" departLane="1" departPos="29.1154" departSpeed="12.0849" speedFactor="1.0283" arrival="160.00">
        <route edges="E_in W_out"/>
    </vehicle>

    <vehicle id="flow_3_phase1_N_right.2" type="moto" depart="130.00" departLane="0" departPos="63.1043" departSpeed="12.9502" speedFactor="1.1043" arrival="161.00">
        <route edges="E_in S_out"/>
    </vehicle>

    <vehicle id="flow_15_phase1_W_right.2" type="truck" depart="125.00" departLane="1" departPos="162.4039" departSpeed="1.3436" speedFactor="0.9396" arrival="163.00">
        <route edges="W_in S_out"/>
    </vehicle>

    <vehicle id="flow_10_phase1_E_left.2" type="moto" depart="128.00" departLane="1" departPos="21.6793" departSpeed="6.5338" speedFactor="1.1413" arrival="163.00">
        <route edges="E_in S_out"/>
    </vehicle>

    <vehicle id="flow_12_phase1_E_uturn.1" type="moto" depart="126.00" departLane="1" departPos="89.1662" departSpeed="11.3855" speedFactor="1.0265" arrival="165.00">
        <route edges="W_in S_out"/>
    </vehicle>

    <vehicle id="flow_16_phase1_W_uturn.1" type="truck" depart="126.00" departLane="1" departPos="124.8757" departSpeed="0.0106" speedFactor="0.8923" arrival="169.00">
        <route edges="W_in W_out"/>
    </vehicle>

    <vehicle id="flow_8_phase1_S_uturn.1" type="moto" depart="126.00" departLane="0" departPos="31.7588" departSpeed="11.7707" speedFactor="0.9374" arrival="174.00">
        <route edges="S_in S_out"/>
    </vehicle>

    <vehicle id="flow_5_phase1_S_straight.6" type="moto" depart="151.00" departLane="1" departPos="29.8839" departSpeed="12.2398" speedFactor="1.0983" arrival="177.00">
        <route edges="S_in N_out"/>
    </vehicle>

    <vehicle id="flow_1_phase1_N_straight.6" type="car" depart="155.00" departLane="0" departPos="42.8454" departSpeed="1.3305" speedFactor="0.9797" arrival="186.00">
        <route edges="N_in S_out"/>
    </vehicle>

    <vehicle id="flow_13_phase1_W_straight.5" type="moto" depart="128.00" departLane="1" departPos="74.602" departSpeed="11.8331" speedFactor="1.0390" arrival="196.00">
        <route edges="W_in E_out"/>
    </vehicle>

    <vehicle id="flow_9_phase1_E_straight.6" type="moto" depart="147.00" departLane="1" departPos="84.296" departSpeed="10.2557" speedFactor="1.0203" arrival="196.00">
        <route edges="E_in W_out"/>
    </vehicle>

    <vehicle id="flow_9_phase1_E_straight.7" type="moto" depart="172.00" departLane="1" departPos="174.3479" departSpeed="2.7383" speedFactor="1.0085" arrival="196.00">
        <route edges="E_in W_out"/>
    </vehicle>

    <vehicle id="flow_13_phase1_W_straight.6" type="car" depart="153.00" departLane="0" departPos="149.6933" departSpeed="1.7566" speedFactor="0.9759" arrival="199.00">
        <route edges="W_in E_out"/>
    </vehicle>

    <vehicle id="flow_14_phase1_W_left.2" type="car" depart="131.00" departLane="1" departPos="84.6621" departSpeed="1.913" speedFactor="0.8975" arrival="201.00">
        <route edges="W_in N_out"/>
    </vehicle>

    <vehicle id="flow_1_phase1_N_straight.7" type="moto" depart="180.00" departLane="0" departPos="174.056" departSpeed="3.2586" speedFactor="1.0626" arrival="208.00">
        <route edges="N_in S_out"/>
    </vehicle>

    <vehicle id="flow_5_phase1_S_straight.7" type="bus" depart="176.00" departLane="0" departPos="161.3057" departSpeed="3.1477" speedFactor="0.9040" arrival="214.00">
        <route edges="S_in N_out"/>
    </vehicle>

    <vehicle id="flow_7_phase1_S_right.3" type="moto" depart="186.00" departLane="1" departPos="76.4696" departSpeed="11.7746" speedFactor="1.0682" arrival="214.00">
        <route edges="S_in E_out"/>
    </vehicle>

    <vehicle id="flow_6_phase1_S_left.3" type="car" depart="191.00" departLane="0" departPos="81.5805" departSpeed="1.2973" speedFactor="1.0972" arrival="217.00">
        <route edges="S_in W_out"/>
    </vehicle>

    <vehicle id="flow_2_phase1_N_left.3" type="moto" depart="187.00" departLane="1" departPos="126.2936" departSpeed="9.1452" speedFactor="0.8878" arrival="219.00">
        <route edges="N_in E_out"/>
    </vehicle>

    <vehicle id="flow_15_phase1_W_right.3" type="moto" depart="188.00" departLane="0" departPos="1.3904" departSpeed="7.2913" speedFactor="1.1705" arrival="221.00">
        <route edges="W_in S_out"/>
    </vehicle>

    <vehicle id="flow_14_phase1_W_left.3" type="moto" depart="197.00" departLane="1" departPos="103.4641" departSpeed="3.4813" speedFactor="1.0873" arrival="222.00">
        <route edges="W_in N_out"/>
    </vehicle>

    <vehicle id="flow_11_phase1_E_right.3" type="moto" depart="186.00" departLane="0" departPos="6.5659" departSpeed="6.595" speedFactor="0.8330" arrival="224.00">
        <route edges="E_in N_out"/>
    </vehicle>

    <vehicle id="flow_13_phase1_W_straight.7" type="moto" depart="179.00" departLane="1" departPos="45.2041" departSpeed="2.1194" speedFactor="0.8003" arrival="226.00">
        <route edges="W_in E_out"/>
    </vehicle>

    <vehicle id="flow_10_phase1_E_left.3" type="truck" depart="191.00" departLane="0" departPos="114.6211" departSpeed="10.9413" speedFactor="1.0651" arrival="229.00">
        <route edges="E_in S_out"/>
    </vehicle>

    <vehicle id="flow_9_phase1_E_straight.8" type="moto" depart="196.00" departLane="1" departPos="2.2093" departSpeed="6.8921" speedFactor="0.9385" arrival="230.00">
        <route edges="E_in W_out"/>
    </vehicle>

    <vehicle id="flow_3_phase1_N_right.3" type="moto" depart="195.00" departLane="0" departPos="74.7856" departSpeed="13.1323" speedFactor="0.9618" arrival="231.00">
        <route edges="E_in S_out"/>
    </vehicle>

    <vehicle id="flow_13_phase1_W_straight.8" type="moto" depart="204.00" departLane="0" departPos="35.6434" departSpeed="3.3434" speedFactor="1.0413" arrival="233.00">
        <route edges="W_in E_out"/>
    </vehicle>

    <vehicle id="flow_9_phase1_E_straight.9" type="truck" depart="221.00" departLane="0" departPos="157.0309" departSpeed="10.5982" speedFactor="1.0019" arrival="240.00">
        <route edges="E_in W_out"/>
    </vehicle>

    <vehicle id="flow_5_phase1_S_straight.8" type="emergency" depart="202.00" departLane="1" departPos="42.0768" departSpeed="14.3132" speedFactor="1.1380" arrival="243.00">
        <route edges="S_in N_out"/>
    </vehicle>

    <vehicle id="flow_1_phase1_N_straight.8" type="moto" depart="206.00" departLane="1" departPos="84.7431" departSpeed="3.5745" speedFactor="0.9730" arrival="246.00">
        <route edges="N_in S_out"/>
    </vehicle>

    <vehicle id="flow_5_phase1_S_straight.9" type="moto" depart="227.00" departLane="1" departPos="69.3051" departSpeed="14.9998" speedFactor="1.2976" arrival="249.00">
        <route edges="S_in N_out"/>
    </vehicle>

    <vehicle id="flow_13_phase1_W_straight.9" type="moto" depart="229.00" departLane="1" departPos="109.1161" departSpeed="2.4692" speedFactor="0.8391" arrival="260.00">
        <route edges="W_in E_out"/>
    </vehicle>

    <vehicle id="flow_1_phase1_N_straight.9" type="truck" depart="232.00" departLane="1" departPos="5.9732" departSpeed="0.4239" speedFactor="0.9670" arrival="270.00">
        <route edges="N_in S_out"/>
    </vehicle>

    <vehicle id="flow_7_phase1_S_right.4" type="moto" depart="247.00" departLane="1" departPos="150.7313" departSpeed="0.5302" speedFactor="0.9645" arrival="271.00">
        <route edges="S_in E_out"/>
    </vehicle>

    <vehicle id="flow_2_phase1_N_left.4" type="moto" depart="249.00" departLane="0" departPos="72.9854" departSpeed="7.664" speedFactor="1.1571" arrival="273.00">
        <route edges="N_in E_out"/>
    </vehicle>

    <vehicle id="flow_8_phase1_S_uturn.2" type="bus" depart="251.00" departLane="1" departPos="188.5725" departSpeed="1.0265" speedFactor="0.9032" arrival="277.00">
        <route edges="S_in S_out"/>
    </vehicle>

    <vehicle id="flow_9_phase1_E_straight.10" type="moto" depart="245.00" departLane="0" departPos="65.0172" departSpeed="3.1319" speedFactor="1.1157" arrival="283.00">
        <route edges="E_in W_out"/>
    </vehicle>

    <vehicle id="flow_15_phase1_W_right.4" type="moto" depart="250.00" departLane="1" departPos="55.6396" departSpeed="12.2131" speedFactor="0.9897" arrival="284.00">
        <route edges="W_in S_out"/>
    </vehicle>

    <vehicle id="flow_13_phase1_W_straight.10" type="moto" depart="255.00" departLane="1" departPos="159.8742" departSpeed="8.4052" speedFactor="1.1421" arrival="284.00">
        <route edges="W_in E_out"/>
    </vehicle>

    <vehicle id="flow_12_phase1_E_uturn.2" type="car" depart="251.00" departLane="1" departPos="9.1985" departSpeed="9.4057" speedFactor="1.0323" arrival="287.00">
        <route edges="W_in S_out"/>
    </vehicle>

    <vehicle id="flow_11_phase1_E_right.4" type="container" depart="247.00" departLane="0" departPos="133.5146" departSpeed="8.1699" speedFactor="1.0240" arrival="290.00">
        <route edges="E_in N_out"/>
    </vehicle>

    <vehicle id="flow_10_phase1_E_left.4" type="moto" depart="255.00" departLane="1" departPos="75.2144" departSpeed="6.5373" speedFactor="1.0039" arrival="290.00">
        <route edges="E_in S_out"/>
    </vehicle>

    <vehicle id="flow_9_phase1_E_straight.11" type="moto" depart="270.00" departLane="0" departPos="172.0661" departSpeed="4.7567" speedFactor="1.0448" arrival="290.00">
        <route edges="E_in W_out"/>
    </vehicle>

    <vehicle id="flow_3_phase1_N_right.4" type="moto" depart="260.00" departLane="0" departPos="77.131" departSpeed="7.3099" speedFactor="1.0387" arrival="291.00">
        <route edges="E_in S_out"/>
    </vehicle>

    <vehicle id="flow_16_phase1_W_uturn.2" type="car" depart="252.00" departLane="1" departPos="146.8151" departSpeed="11.3045" speedFactor="0.8850" arrival="293.00">
        <route edges="W_in W_out"/>
    </vehicle>

    <vehicle id="flow_5_phase1_S_straight.10" type="moto" depart="252.00" departLane="0" departPos="2.1035" departSpeed="10.5656" speedFactor="1.0281" arrival="297.00">
        <route edges="S_in N_out"/>
    </vehicle>

    <vehicle id="flow_4_phase1_N_uturn.2" type="bus" depart="251.00" departLane="1" departPos="60.4969" departSpeed="2.7964" speedFactor="0.9315" arrival="301.00">
        <route edges="N_in N_out"/>
    </vehicle>

    <vehicle id="flow_1_phase1_N_straight.10" type="bus" depart="257.00" departLane="0" departPos="45.6162" departSpeed="13.2871" speedFactor="1.0325" arrival="301.00">
        <route edges="N_in S_out"/>
    </vehicle>

    <vehicle id="flow_5_phase1_S_straight.11" type="bus" depart="277.00" departLane="0" departPos="3.1111" departSpeed="8.2181" speedFactor="0.9784" arrival="308.00">
        <route edges="S_in N_out"/>
    </vehicle>

    <vehicle id="flow_1_phase1_N_straight.11" type="truck" depart="283.00" departLane="0" departPos="161.6079" departSpeed="0.9958" speedFactor="0.9137" arrival="308.00">
        <route edges="N_in S_out"/>
    </vehicle>

    <vehicle id="flow_6_phase1_S_left.4" type="moto" depart="255.00" departLane="0" departPos="5.0473" departSpeed="11.5237" speedFactor="1.0387" arrival="310.00">
        <route edges="S_in W_out"/>
    </vehicle>

    <vehicle id="flow_13_phase1_W_straight.11" type="moto" depart="280.00" departLane="1" departPos="168.8768" departSpeed="5.6101" speedFactor="1.0140" arrival="320.00">
        <route edges="W_in E_out"/>
    </vehicle>

    <vehicle id="flow_9_phase1_E_straight.12" type="moto" depart="294.00" departLane="1" departPos="187.4776" departSpeed="0.1094" speedFactor="1.0047" arrival="321.00">
        <route edges="E_in W_out"/>
    </vehicle>

    <vehicle id="flow_14_phase1_W_left.4" type="bus" depart="262.00" departLane="0" departPos="131.4461" departSpeed="10.2654" speedFactor="0.8196" arrival="330.00">
        <route edges="W_in N_out"/>
    </vehicle>

    <vehicle id="flow_11_phase1_E_right.5" type="moto" depart="309.00" departLane="1" departPos="49.5467" departSpeed="9.5365" speedFactor="1.2552" arrival="334.00">
        <route edges="E_in N_out"/>
    </vehicle>

    <vehicle id="flow_13_phase1_W_straight.12" type="moto" depart="306.00" departLane="0" departPos="8.1725" departSpeed="3.9402" speedFactor="1.1365" arrival="336.00">
        <route edges="W_in E_out"/>
    </vehicle>

    <vehicle id="flow_15_phase1_W_right.5" type="car" depart="312.00" departLane="1" departPos="97.1832" departSpeed="3.68" speedFactor="0.9653" arrival="339.00">
        <route edges="W_in S_out"/>
    </vehicle>

    <vehicle id="flow_5_phase1_S_straight.12" type="moto" depart="302.00" departLane="0" departPos="10.777" departSpeed="2.1404" speedFactor="1.0699" arrival="342.00">
        <route edges="S_in N_out"/>
    </vehicle>

    <vehicle id="flow_5_phase1_S_straight.13" type="moto" depart="327.00" departLane="1" departPos="161.9597" departSpeed="5.7422" speedFactor="1.2148" arrival="344.00">
        <route edges="S_in N_out"/>
    </vehicle>

    <vehicle id="flow_7_phase1_S_right.5" type="truck" depart="309.00" departLane="0" departPos="144.3932" departSpeed="3.2271" speedFactor="1.0532" arrival="346.00">
        <route edges="S_in E_out"/>
    </vehicle>

    <vehicle id="flow_1_phase1_N_straight.12" type="truck" depart="309.00" departLane="1" departPos="133.5978" departSpeed="9.1244" speedFactor="0.9615" arrival="347.00">
        <route edges="N_in S_out"/>
    </vehicle>

    <vehicle id="flow_1_phase1_N_straight.13" type="truck" depart="334.00" departLane="0" departPos="187.7648" departSpeed="11.2632" speedFactor="0.9465" arrival="351.00">
        <route edges="N_in S_out"/>
    </vehicle>

    <vehicle id="flow_2_phase1_N_left.5" type="car" depart="311.00" departLane="0" departPos="154.6775" departSpeed="4.692" speedFactor="0.8868" arrival="353.00">
        <route edges="N_in E_out"/>
    </vehicle>

    <vehicle id="flow_6_phase1_S_left.5" type="bus" depart="318.00" departLane="1" departPos="15.5808" departSpeed="1.1431" speedFactor="0.9819" arrival="360.00">
        <route edges="S_in W_out"/>
    </vehicle>

    <vehicle id="flow_9_phase1_E_straight.13" type="moto" depart="319.00" departLane="1" departPos="80.1718" departSpeed="10.7995" speedFactor="0.9282" arrival="367.00">
        <route edges="E_in W_out"/>
    </vehicle>

    <vehicle id="flow_13_phase1_W_straight.13" type="moto" depart="331.00" departLane="0" departPos="184.0677" departSpeed="5.0157" speedFactor="0.8917" arrival="368.00">
        <route edges="W_in E_out"/>
    </vehicle>

    <vehicle id="flow_10_phase1_E_left.5" type="moto" depart="319.00" departLane="0" departPos="11.4261" departSpeed="14.7063" speedFactor="1.0856" arrival="369.00">
        <route edges="E_in S_out"/>
    </vehicle>

    <vehicle id="flow_9_phase1_E_straight.14" type="moto" depart="343.00" departLane="0" departPos="116.7981" departSpeed="6.143" speedFactor="0.8543" arrival="370.00">
        <route edges="E_in W_out"/>
    </vehicle>

    <vehicle id="flow_3_phase1_N_right.5" type="moto" depart="325.00" departLane="0" departPos="22.6696" departSpeed="6.6806" speedFactor="0.9059" arrival="373.00">
        <route edges="E_in S_out"/>
    </vehicle>

    <vehicle id="flow_14_phase1_W_left.5" type="bus" depart="328.00" departLane="0" departPos="44.9537" departSpeed="5.7073" speedFactor="0.9554" arrival="376.00">
        <route edges="W_in N_out"/>
    </vehicle>

    <vehicle id="flow_5_phase1_S_straight.14" type="car" depart="352.00" departLane="1" departPos="165.1863" departSpeed="6.043" speedFactor="0.8047" arrival="383.00">
        <route edges="S_in N_out"/>
    </vehicle>

    <vehicle id="flow_13_phase1_W_straight.14" type="moto" depart="357.00" departLane="1" departPos="160.2411" departSpeed="5.2657" speedFactor="1.1523" arrival="391.00">
        <route edges="W_in E_out"/>
    </vehicle>

    <vehicle id="flow_9_phase1_E_straight.15" type="bus" depart="367.00" departLane="0" departPos="153.951" departSpeed="9.3285" speedFactor="0.8815" arrival="398.00">
        <route edges="E_in W_out"/>
    </vehicle>

    <vehicle id="flow_11_phase1_E_right.6" type="car" depart="371.00" departLane="0" departPos="122.1483" departSpeed="12.9996" speedFactor="0.9838" arrival="398.00">
        <route edges="E_in N_out"/>
    </vehicle>

    <vehicle id="flow_15_phase1_W_right.6" type="car" depart="375.00" departLane="0" departPos="154.1317" departSpeed="9.8187" speedFactor="0.8963" arrival="398.00">
        <route edges="W_in S_out"/>
    </vehicle>

    <vehicle id="flow_1_phase1_N_straight.14" type="car" depart="360.00" departLane="1" departPos="2.7138" departSpeed="7.7021" speedFactor="0.9718" arrival="406.00">
        <route edges="N_in S_out"/>
    </vehicle>

    <vehicle id="flow_7_phase1_S_right.6" type="car" depart="371.00" departLane="0" departPos="9.9449" departSpeed="2.1899" speedFactor="1.1275" arrival="410.00">
        <route edges="S_in E_out"/>
    </vehicle>

    <vehicle id="flow_8_phase1_S_uturn.3" type="moto" depart="376.00" departLane="0" departPos="98.4033" departSpeed="6.3846" speedFactor="1.0747" arrival="411.00">
        <route edges="S_in S_out"/>
    </vehicle>

    <vehicle id="flow_5_phase1_S_straight.15" type="container" depart="378.00" departLane="0" departPos="175.8273" departSpeed="1.602" speedFactor="0.9628" arrival="414.00">
        <route edges="S_in N_out"/>
    </vehicle>

    <vehicle id="flow_1_phase1_N_straight.15" type="car" depart="386.00" departLane="1" departPos="176.9698" departSpeed="5.864" speedFactor="0.9311" arrival="415.00">
        <route edges="N_in S_out"/>
    </vehicle>

    <vehicle id="flow_2_phase1_N_left.6" type="moto" depart="373.00" departLane="0" departPos="100.2317" departSpeed="8.7821" speedFactor="0.8416" arrival="417.00">
        <route edges="N_in E_out"/>
    </vehicle>

    <vehicle id="flow_6_phase1_S_left.6" type="bus" depart="382.00" departLane="0" departPos="55.9807" departSpeed="0.9388" speedFactor="1.0167" arrival="417.00">
        <route edges="S_in W_out"/>
    </vehicle>

    <vehicle id="flow_12_phase1_E_uturn.3" type="car" depart="376.00" departLane="1" departPos="28.4645" departSpeed="7.232" speedFactor="0.9559" arrival="418.00">
        <route edges="W_in S_out"/>
    </vehicle>

    <vehicle id="flow_13_phase1_W_straight.15" type="car" depart="382.00" departLane="1" departPos="46.7196" departSpeed="2.7148" speedFactor="1.0262" arrival="420.00">
        <route edges="W_in E_out"/>
    </vehicle>
