<?xml version="1.0" encoding="UTF-8"?>

<!-- generated on 2025-12-09 20:38:58 by Eclipse SUMO sumo Version 1.18.0
<configuration xmlns:xsi="http://www.w3.org/2001/XMLSchema-instance" xsi:noNamespaceSchemaLocation="http://sumo.dlr.de/xsd/sumoConfiguration.xsd">

    <input>
        <net-file value="nets/60p2k/net.net.xml"/>
        <route-files value="nets/60p2k/route_temp_26_124611776755504_93502079.rou.xml"/>
    </input>

    <output>
        <summary-output value="result_ddqn_1.0_0.1/summary_ep_7.xml"/>
        <tripinfo-output value="result_ddqn_1.0_0.1/tripinfo_ep_7.xml"/>
        <vehroute-output value="result_ddqn_1.0_0.1/vehroute_ep_7.xml"/>
    </output>

    <time>
        <begin value="0"/>
    </time>

    <report>
        <verbose value="true"/>
        <no-warnings value="true"/>
        <no-step-log value="true"/>
    </report>

    <traci_server>
        <remote-port value="49665"/>
    </traci_server>

    <gui_only>
        <gui-settings-file value="nets/60p2k/gui-settings.xml"/>
        <quit-on-end value="true"/>
    </gui_only>

</configuration>
-->

<routes xmlns:xsi="http://www.w3.org/2001/XMLSchema-instance" xsi:noNamespaceSchemaLocation="http://sumo.dlr.de/xsd/routes_file.xsd">
    <vehicle id="flow_3_phase1_N_right.0" type="car" depart="0.00" departLane="0" departPos="103.3842" departSpeed="3.7523" speedFactor="1.0907" arrival="24.00">
        <route edges="N_in W_out"/>
    </vehicle>

    <vehicle id="flow_8_phase1_S_uturn.0" type="moto" depart="0.00" departLane="0" departPos="120.1072" departSpeed="4.4837" speedFactor="1.0505" arrival="24.00">
        <route edges="S_in S_out"/>
    </vehicle>

    <vehicle id="flow_6_phase1_S_left.0" type="moto" depart="0.00" departLane="1" departPos="166.0107" departSpeed="0.7376" speedFactor="0.8806" arrival="25.00">
        <route edges="S_in W_out"/>
    </vehicle>

    <vehicle id="flow_5_phase1_S_straight.0" type="moto" depart="0.00" departLane="1" departPos="107.3659" departSpeed="7.2113" speedFactor="1.1475" arrival="26.00">
        <route edges="S_in W_out"/>
    </vehicle>

    <vehicle id="flow_4_phase1_N_uturn.0" type="car" depart="0.00" departLane="1" departPos="127.6015" departSpeed="0.0774" speedFactor="0.9228" arrival="27.00">
        <route edges="N_in N_out"/>
    </vehicle>

    <vehicle id="flow_14_phase1_W_left.0" type="moto" depart="0.00" departLane="1" departPos="50.0682" departSpeed="13.5426" speedFactor="1.0101" arrival="29.00">
        <route edges="S_in W_out"/>
    </vehicle>

    <vehicle id="flow_2_phase1_N_left.0" type="moto" depart="0.00" departLane="1" departPos="8.2688" departSpeed="8.3291" speedFactor="1.0157" arrival="31.00">
        <route edges="N_in E_out"/>
    </vehicle>

    <vehicle id="flow_12_phase1_E_uturn.0" type="moto" depart="0.00" departLane="0" departPos="129.8894" departSpeed="13.7593" speedFactor="1.0348" arrival="35.00">
        <route edges="E_in E_out"/>
    </vehicle>

    <vehicle id="flow_16_phase1_W_uturn.0" type="moto" depart="0.00" departLane="0" departPos="126.6766" departSpeed="11.7148" speedFactor="1.0383" arrival="36.00">
        <route edges="W_in W_out"/>
    </vehicle>

    <vehicle id="flow_15_phase1_W_right.0" type="moto" depart="0.00" departLane="1" departPos="108.377" departSpeed="1.9778" speedFactor="0.8472" arrival="39.00">
        <route edges="W_in S_out"/>
    </vehicle>

    <vehicle id="flow_9_phase1_E_straight.0" type="truck" depart="0.00" departLane="0" departPos="168.2937" departSpeed="9.8263" speedFactor="0.8990" arrival="41.00">
        <route edges="E_in W_out"/>
    </vehicle>

    <vehicle id="flow_13_phase1_W_straight.0" type="container" depart="0.00" departLane="0" departPos="23.7725" departSpeed="1.4795" speedFactor="0.8227" arrival="41.00">
        <route edges="W_in E_out"/>
    </vehicle>

    <vehicle id="flow_11_phase1_E_right.0" type="bus" depart="0.00" departLane="1" departPos="144.9496" departSpeed="4.0187" speedFactor="0.9581" arrival="42.00">
        <route edges="E_in N_out"/>
    </vehicle>

    <vehicle id="flow_10_phase1_E_left.0" type="truck" depart="0.00" departLane="0" departPos="44.8816" departSpeed="7.6878" speedFactor="1.0161" arrival="47.00">
        <route edges="E_in S_out"/>
    </vehicle>

    <vehicle id="flow_1_phase1_N_straight.0" type="bus" depart="0.00" departLane="0" departPos="8.6229" departSpeed="8.5053" speedFactor="0.8588" arrival="56.00">
        <route edges="N_in S_out"/>
    </vehicle>

    <vehicle id="flow_1_phase1_N_straight.1" type="moto" depart="26.00" departLane="1" departPos="58.3562" departSpeed="11.6446" speedFactor="0.8727" arrival="56.00">
        <route edges="N_in S_out"/>
    </vehicle>

    <vehicle id="flow_5_phase1_S_straight.1" type="moto" depart="26.00" departLane="1" departPos="31.9285" departSpeed="9.2811" speedFactor="1.1853" arrival="56.00">
        <route edges="S_in W_out"/>
    </vehicle>

    <vehicle id="flow_9_phase1_E_straight.1" type="moto" depart="25.00" departLane="0" departPos="131.129" departSpeed="9.5396" speedFactor="1.1582" arrival="60.00">
        <route edges="E_in W_out"/>
    </vehicle>

    <vehicle id="flow_13_phase1_W_straight.1" type="car" depart="26.00" departLane="1" departPos="121.6549" departSpeed="2.8591" speedFactor="1.1218" arrival="61.00">
        <route edges="W_in E_out"/>
    </vehicle>

    <vehicle id="flow_7_phase1_S_right.0" type="container" depart="0.00" departLane="0" departPos="8.759" departSpeed="8.0654" speedFactor="0.8488" arrival="76.00">
        <route edges="E_in S_out"/>
    </vehicle>

    <vehicle id="flow_1_phase1_N_straight.2" type="moto" depart="52.00" departLane="1" departPos="107.5311" departSpeed="1.1094" speedFactor="0.9279" arrival="79.00">
        <route edges="N_in S_out"/>
    </vehicle>

    <vehicle id="flow_5_phase1_S_straight.2" type="moto" depart="51.00" departLane="1" departPos="12.6982" departSpeed="12.4143" speedFactor="0.9623" arrival="83.00">
        <route edges="S_in W_out"/>
    </vehicle>

    <vehicle id="flow_2_phase1_N_left.1" type="moto" depart="63.00" departLane="1" departPos="128.6773" departSpeed="3.0596" speedFactor="1.0365" arrival="87.00">
        <route edges="N_in E_out"/>
    </vehicle>

    <vehicle id="flow_6_phase1_S_left.1" type="moto" depart="64.00" departLane="1" departPos="110.9191" departSpeed="11.9947" speedFactor="1.0453" arrival="88.00">
        <route edges="S_in W_out"/>
    </vehicle>

    <vehicle id="flow_14_phase1_W_left.1" type="container" depart="66.00" departLane="1" departPos="93.4122" departSpeed="7.9485" speedFactor="0.9146" arrival="96.00">
        <route edges="S_in W_out"/>
    </vehicle>

    <vehicle id="flow_9_phase1_E_straight.2" type="moto" depart="49.00" departLane="1" departPos="52.8684" departSpeed="0.3845" speedFactor="0.9938" arrival="98.00">
        <route edges="E_in W_out"/>
    </vehicle>

    <vehicle id="flow_13_phase1_W_straight.3" type="moto" depart="77.00" departLane="0" departPos="65.0085" departSpeed="6.5773" speedFactor="1.2027" arrival="100.00">
        <route edges="W_in E_out"/>
    </vehicle>

    <vehicle id="flow_15_phase1_W_right.1" type="moto" depart="63.00" departLane="0" departPos="73.8966" departSpeed="9.2239" speedFactor="1.0788" arrival="102.00">
        <route edges="W_in S_out"/>
    </vehicle>

    <vehicle id="flow_13_phase1_W_straight.2" type="bus" depart="51.00" departLane="1" departPos="59.5081" departSpeed="13.3195" speedFactor="0.9657" arrival="103.00">
        <route edges="W_in E_out"/>
    </vehicle>

    <vehicle id="flow_11_phase1_E_right.1" type="container" depart="62.00" departLane="1" departPos="66.71" departSpeed="7.8717" speedFactor="0.7845" arrival="108.00">
        <route edges="E_in N_out"/>
    </vehicle>

    <vehicle id="flow_10_phase1_E_left.1" type="truck" depart="64.00" departLane="1" departPos="185.2056" departSpeed="3.6967" speedFactor="0.7665" arrival="113.00">
        <route edges="E_in S_out"/>
    </vehicle>

    <vehicle id="flow_3_phase1_N_right.1" type="moto" depart="65.00" departLane="0" departPos="19.8546" departSpeed="3.7056" speedFactor="0.8806" arrival="113.00">
        <route edges="N_in W_out"/>
    </vehicle>

    <vehicle id="flow_5_phase1_S_straight.3" type="moto" depart="76.00" departLane="0" departPos="184.1938" departSpeed="4.9526" speedFactor="1.0764" arrival="114.00">
        <route edges="S_in W_out"/>
    </vehicle>

    <vehicle id="flow_1_phase1_N_straight.3" type="car" depart="78.00" departLane="1" departPos="88.4153" departSpeed="1.4788" speedFactor="1.0479" arrival="114.00">
        <route edges="N_in S_out"/>
    </vehicle>

    <vehicle id="flow_5_phase1_S_straight.4" type="container" depart="101.00" departLane="0" departPos="135.2371" departSpeed="1.6769" speedFactor="0.9706" arrival="131.00">
        <route edges="S_in W_out"/>
    </vehicle>

    <vehicle id="flow_13_phase1_W_straight.4" type="bus" depart="102.00" departLane="0" departPos="70.4575" departSpeed="10.655" speedFactor="0.8691" arrival="140.00">
        <route edges="W_in E_out"/>
    </vehicle>

    <vehicle id="flow_7_phase1_S_right.1" type="moto" depart="62.00" departLane="0" departPos="8.8817" departSpeed="2.8196" speedFactor="1.1228" arrival="141.00">
        <route edges="E_in S_out"/>
    </vehicle>

    <vehicle id="flow_9_phase1_E_straight.3" type="bus" depart="74.00" departLane="0" departPos="86.4153" departSpeed="8.4123" speedFactor="0.8515" arrival="141.00">
        <route edges="E_in W_out"/>
    </vehicle>

    <vehicle id="flow_2_phase1_N_left.2" type="emergency" depart="125.00" departLane="1" departPos="129.0888" departSpeed="5.7961" speedFactor="1.0989" arrival="148.00">
        <route edges="N_in E_out"/>
    </vehicle>

    <vehicle id="flow_9_phase1_E_straight.4" type="bus" depart="98.00" departLane="1" departPos="53.3168" departSpeed="10.3403" speedFactor="0.9525" arrival="149.00">
        <route edges="E_in W_out"/>
    </vehicle>

    <vehicle id="flow_4_phase1_N_uturn.1" type="moto" depart="126.00" departLane="0" departPos="155.6805" departSpeed="8.4812" speedFactor="0.9517" arrival="149.00">
        <route edges="N_in N_out"/>
    </vehicle>

    <vehicle id="flow_1_phase1_N_straight.4" type="truck" depart="103.00" departLane="1" departPos="74.0695" departSpeed="0.5443" speedFactor="0.9194" arrival="154.00">
        <route edges="N_in S_out"/>
    </vehicle>

    <vehicle id="flow_3_phase1_N_right.2" type="moto" depart="130.00" departLane="0" departPos="87.7633" departSpeed="12.0348" speedFactor="1.1043" arrival="154.00">
        <route edges="N_in W_out"/>
    </vehicle>

    <vehicle id="flow_1_phase1_N_straight.5" type="moto" depart="129.00" departLane="1" departPos="92.4194" departSpeed="4.9333" speedFactor="0.9020" arrival="156.00">
        <route edges="N_in S_out"/>
    </vehicle>

    <vehicle id="flow_11_phase1_E_right.2" type="moto" depart="124.00" departLane="1" departPos="111.6918" departSpeed="6.8465" speedFactor="1.1432" arrival="158.00">
        <route edges="E_in N_out"/>
    </vehicle>

    <vehicle id="flow_6_phase1_S_left.2" type="moto" depart="128.00" departLane="1" departPos="174.172" departSpeed="9.6423" speedFactor="1.0668" arrival="158.00">
        <route edges="S_in W_out"/>
    </vehicle>

    <vehicle id="flow_9_phase1_E_straight.5" type="moto" depart="123.00" departLane="1" departPos="160.3044" departSpeed="9.926" speedFactor="1.0283" arrival="160.00">
        <route edges="E_in W_out"/>
    </vehicle>

    <vehicle id="flow_8_phase1_S_uturn.1" type="moto" depart="126.00" departLane="0" departPos="91.5182" departSpeed="11.5602" speedFactor="0.9374" arrival="160.00">
        <route edges="S_in S_out"/>
    </vehicle>

    <vehicle id="flow_13_phase1_W_straight.5" type="moto" depart="128.00" departLane="0" departPos="161.4056" departSpeed="1.6513" speedFactor="1.0390" arrival="160.00">
        <route edges="W_in E_out"/>
    </vehicle>

    <vehicle id="flow_10_phase1_E_left.2" type="moto" depart="128.00" departLane="1" departPos="172.3747" departSpeed="5.1333" speedFactor="1.1413" arrival="162.00">
        <route edges="E_in S_out"/>
    </vehicle>

    <vehicle id="flow_7_phase1_S_right.2" type="moto" depart="124.00" departLane="1" departPos="65.3279" departSpeed="12.5263" speedFactor="0.9964" arrival="164.00">
        <route edges="E_in S_out"/>
    </vehicle>

    <vehicle id="flow_15_phase1_W_right.2" type="truck" depart="125.00" departLane="1" departPos="19.5053" departSpeed="7.488" speedFactor="0.9396" arrival="165.00">
        <route edges="W_in S_out"/>
    </vehicle>

    <vehicle id="flow_12_phase1_E_uturn.1" type="moto" depart="126.00" departLane="1" departPos="65.5698" departSpeed="2.39" speedFactor="1.0265" arrival="166.00">
        <route edges="E_in E_out"/>
    </vehicle>

    <vehicle id="flow_16_phase1_W_uturn.1" type="truck" depart="126.00" departLane="0" departPos="64.2471" departSpeed="5.8329" speedFactor="0.8923" arrival="167.00">
        <route edges="W_in W_out"/>
    </vehicle>

    <vehicle id="flow_5_phase1_S_straight.5" type="moto" depart="126.00" departLane="1" departPos="2.773" departSpeed="6.7809" speedFactor="0.8882" arrival="175.00">
        <route edges="S_in W_out"/>
    </vehicle>

    <vehicle id="flow_14_phase1_W_left.2" type="car" depart="131.00" departLane="1" departPos="39.3431" departSpeed="4.1521" speedFactor="0.8975" arrival="177.00">
        <route edges="S_in W_out"/>
    </vehicle>

    <vehicle id="flow_5_phase1_S_straight.6" type="moto" depart="151.00" departLane="0" departPos="69.4902" departSpeed="6.7874" speedFactor="1.0983" arrival="179.00">
        <route edges="S_in W_out"/>
    </vehicle>

    <vehicle id="flow_1_phase1_N_straight.6" type="car" depart="155.00" departLane="1" departPos="21.7404" departSpeed="10.7516" speedFactor="0.9797" arrival="185.00">
        <route edges="N_in S_out"/>
    </vehicle>

    <vehicle id="flow_9_phase1_E_straight.6" type="moto" depart="147.00" departLane="0" departPos="61.3216" departSpeed="6.3328" speedFactor="1.0203" arrival="196.00">
        <route edges="E_in W_out"/>
    </vehicle>

    <vehicle id="flow_13_phase1_W_straight.6" type="car" depart="153.00" departLane="1" departPos="109.8853" departSpeed="2.1381" speedFactor="0.9759" arrival="197.00">
        <route edges="W_in E_out"/>
    </vehicle>

    <vehicle id="flow_9_phase1_E_straight.7" type="moto" depart="172.00" departLane="0" departPos="43.1808" departSpeed="3.1678" speedFactor="1.0085" arrival="201.00">
        <route edges="E_in W_out"/>
    </vehicle>

    <vehicle id="flow_13_phase1_W_straight.7" type="moto" depart="179.00" departLane="1" departPos="88.3207" departSpeed="9.4641" speedFactor="0.8003" arrival="209.00">
        <route edges="W_in E_out"/>
    </vehicle>

    <vehicle id="flow_7_phase1_S_right.3" type="moto" depart="186.00" departLane="1" departPos="107.805" departSpeed="13.6307" speedFactor="1.0682" arrival="209.00">
        <route edges="E_in S_out"/>
    </vehicle>

    <vehicle id="flow_10_phase1_E_left.3" type="truck" depart="191.00" departLane="0" departPos="150.3232" departSpeed="6.3702" speedFactor="1.0651" arrival="213.00">
        <route edges="E_in S_out"/>
    </vehicle>

    <vehicle id="flow_1_phase1_N_straight.7" type="moto" depart="180.00" departLane="0" departPos="178.3578" departSpeed="3.5215" speedFactor="1.0626" arrival="219.00">
        <route edges="N_in S_out"/>
    </vehicle>

    <vehicle id="flow_2_phase1_N_left.3" type="moto" depart="187.00" departLane="1" departPos="142.1182" departSpeed="0.4274" speedFactor="0.8878" arrival="221.00">
        <route edges="N_in E_out"/>
    </vehicle>

    <vehicle id="flow_5_phase1_S_straight.7" type="bus" depart="176.00" departLane="0" departPos="60.8307" departSpeed="11.5548" speedFactor="0.9040" arrival="226.00">
        <route edges="S_in W_out"/>
    </vehicle>

    <vehicle id="flow_3_phase1_N_right.3" type="moto" depart="195.00" departLane="0" departPos="36.1365" departSpeed="8.0821" speedFactor="0.9618" arrival="226.00">
        <route edges="N_in W_out"/>
    </vehicle>

    <vehicle id="flow_5_phase1_S_straight.8" type="emergency" depart="202.00" departLane="0" departPos="178.6166" departSpeed="7.9912" speedFactor="1.1380" arrival="228.00">
        <route edges="S_in W_out"/>
    </vehicle>

    <vehicle id="flow_6_phase1_S_left.3" type="car" depart="191.00" departLane="1" departPos="111.5719" departSpeed="0.1118" speedFactor="1.0972" arrival="230.00">
        <route edges="S_in W_out"/>
    </vehicle>

    <vehicle id="flow_14_phase1_W_left.3" type="moto" depart="197.00" departLane="1" departPos="109.812" departSpeed="0.1761" speedFactor="1.0873" arrival="231.00">
        <route edges="S_in W_out"/>
    </vehicle>

    <vehicle id="flow_1_phase1_N_straight.8" type="moto" depart="206.00" departLane="0" departPos="65.7387" departSpeed="2.5425" speedFactor="0.9730" arrival="234.00">
        <route edges="N_in S_out"/>
    </vehicle>

    <vehicle id="flow_15_phase1_W_right.3" type="moto" depart="188.00" departLane="1" departPos="22.6438" departSpeed="10.6577" speedFactor="1.1705" arrival="240.00">
        <route edges="W_in S_out"/>
    </vehicle>

    <vehicle id="flow_13_phase1_W_straight.8" type="moto" depart="204.00" departLane="0" departPos="173.6034" departSpeed="3.2121" speedFactor="1.0413" arrival="242.00">
        <route edges="W_in E_out"/>
    </vehicle>

    <vehicle id="flow_9_phase1_E_straight.8" type="moto" depart="196.00" departLane="1" departPos="20.793" departSpeed="5.1455" speedFactor="0.9385" arrival="243.00">
        <route edges="E_in W_out"/>
    </vehicle>

    <vehicle id="flow_11_phase1_E_right.3" type="moto" depart="186.00" departLane="0" departPos="16.037" departSpeed="4.6699" speedFactor="0.8330" arrival="244.00">
        <route edges="E_in N_out"/>
    </vehicle>

    <vehicle id="flow_9_phase1_E_straight.9" type="truck" depart="221.00" departLane="1" departPos="57.3268" departSpeed="6.2245" speedFactor="1.0019" arrival="249.00">
        <route edges="E_in W_out"/>
    </vehicle>

    <vehicle id="flow_5_phase1_S_straight.9" type="moto" depart="227.00" departLane="1" departPos="58.7528" departSpeed="13.2516" speedFactor="1.2976" arrival="252.00">
        <route edges="S_in W_out"/>
    </vehicle>

    <vehicle id="flow_1_phase1_N_straight.9" type="truck" depart="232.00" departLane="1" departPos="9.2851" departSpeed="7.7356" speedFactor="0.9670" arrival="264.00">
        <route edges="N_in S_out"/>
    </vehicle>

    <vehicle id="flow_9_phase1_E_straight.10" type="moto" depart="245.00" departLane="0" departPos="174.1059" departSpeed="0.4886" speedFactor="1.1157" arrival="266.00">
        <route edges="E_in W_out"/>
    </vehicle>

    <vehicle id="flow_13_phase1_W_straight.9" type="moto" depart="229.00" departLane="0" departPos="2.521" departSpeed="4.2634" speedFactor="0.8391" arrival="271.00">
        <route edges="W_in E_out"/>
    </vehicle>

    <vehicle id="flow_11_phase1_E_right.4" type="container" depart="247.00" departLane="1" departPos="103.2677" departSpeed="11.1299" speedFactor="1.0240" arrival="273.00">
        <route edges="E_in N_out"/>
    </vehicle>

    <vehicle id="flow_15_phase1_W_right.4" type="moto" depart="250.00" departLane="1" departPos="90.8186" departSpeed="10.9572" speedFactor="0.9897" arrival="276.00">
        <route edges="W_in S_out"/>
    </vehicle>

    <vehicle id="flow_13_phase1_W_straight.10" type="moto" depart="255.00" departLane="0" departPos="88.8236" departSpeed="9.1515" speedFactor="1.1421" arrival="276.00">
        <route edges="W_in E_out"/>
    </vehicle>

    <vehicle id="flow_16_phase1_W_uturn.2" type="car" depart="252.00" departLane="0" departPos="140.1793" departSpeed="11.2783" speedFactor="0.8850" arrival="278.00">
        <route edges="W_in W_out"/>
    </vehicle>

    <vehicle id="flow_10_phase1_E_left.4" type="moto" depart="255.00" departLane="0" departPos="151.3306" departSpeed="10.3292" speedFactor="1.0039" arrival="281.00">
        <route edges="E_in S_out"/>
    </vehicle>

    <vehicle id="flow_7_phase1_S_right.4" type="moto" depart="247.00" departLane="1" departPos="53.9882" departSpeed="4.5973" speedFactor="0.9645" arrival="283.00">
        <route edges="E_in S_out"/>
    </vehicle>

    <vehicle id="flow_12_phase1_E_uturn.2" type="car" depart="251.00" departLane="0" departPos="45.7887" departSpeed="9.3711" speedFactor="1.0323" arrival="285.00">
        <route edges="E_in E_out"/>
    </vehicle>

    <vehicle id="flow_3_phase1_N_right.4" type="moto" depart="260.00" departLane="1" departPos="45.6162" departSpeed="9.3842" speedFactor="1.0387" arrival="289.00">
        <route edges="N_in W_out"/>
    </vehicle>

    <vehicle id="flow_2_phase1_N_left.4" type="moto" depart="249.00" departLane="1" departPos="90.2975" departSpeed="8.1109" speedFactor="1.1571" arrival="295.00">
        <route edges="N_in E_out"/>
    </vehicle>

    <vehicle id="flow_4_phase1_N_uturn.2" type="bus" depart="251.00" departLane="1" departPos="168.3233" departSpeed="4.4201" speedFactor="0.9315" arrival="295.00">
        <route edges="N_in N_out"/>
    </vehicle>

    <vehicle id="flow_1_phase1_N_straight.10" type="bus" depart="257.00" departLane="1" departPos="100.3851" departSpeed="2.6365" speedFactor="1.0325" arrival="295.00">
        <route edges="N_in S_out"/>
    </vehicle>

    <vehicle id="flow_5_phase1_S_straight.10" type="moto" depart="252.00" departLane="0" departPos="124.2821" departSpeed="12.7701" speedFactor="1.0281" arrival="298.00">
        <route edges="S_in W_out"/>
    </vehicle>

    <vehicle id="flow_6_phase1_S_left.4" type="moto" depart="255.00" departLane="0" departPos="174.2328" departSpeed="5.1549" speedFactor="1.0387" arrival="300.00">
        <route edges="S_in W_out"/>
    </vehicle>

    <vehicle id="flow_8_phase1_S_uturn.2" type="bus" depart="251.00" departLane="1" departPos="40.9491" departSpeed="1.9281" speedFactor="0.9032" arrival="306.00">
        <route edges="S_in S_out"/>
    </vehicle>

    <vehicle id="flow_14_phase1_W_left.4" type="bus" depart="262.00" departLane="0" departPos="77.131" departSpeed="5.768" speedFactor="0.8196" arrival="311.00">
        <route edges="S_in W_out"/>
    </vehicle>

    <vehicle id="flow_9_phase1_E_straight.11" type="moto" depart="270.00" departLane="0" departPos="180.9021" departSpeed="6.5985" speedFactor="1.0448" arrival="314.00">
        <route edges="E_in W_out"/>
    </vehicle>

    <vehicle id="flow_13_phase1_W_straight.11" type="moto" depart="280.00" departLane="1" departPos="149.7816" departSpeed="12.7912" speedFactor="1.0140" arrival="314.00">
        <route edges="W_in E_out"/>
    </vehicle>

    <vehicle id="flow_9_phase1_E_straight.12" type="moto" depart="294.00" departLane="0" departPos="60.9644" departSpeed="12.4389" speedFactor="1.0047" arrival="320.00">
        <route edges="E_in W_out"/>
    </vehicle>

    <vehicle id="flow_1_phase1_N_straight.11" type="truck" depart="283.00" departLane="1" departPos="81.1005" departSpeed="0.2084" speedFactor="0.9137" arrival="331.00">
        <route edges="N_in S_out"/>
    </vehicle>

    <vehicle id="flow_2_phase1_N_left.5" type="car" depart="311.00" departLane="1" departPos="170.5857" departSpeed="9.3875" speedFactor="0.8868" arrival="334.00">
        <route edges="N_in E_out"/>
    </vehicle>

    <vehicle id="flow_5_phase1_S_straight.11" type="bus" depart="277.00" departLane="0" departPos="62.1003" departSpeed="7.7574" speedFactor="0.9784" arrival="338.00">
        <route edges="S_in W_out"/>
    </vehicle>

    <vehicle id="flow_11_phase1_E_right.5" type="moto" depart="309.00" departLane="0" departPos="169.1917" departSpeed="11.2741" speedFactor="1.2552" arrival="338.00">
        <route edges="E_in N_out"/>
    </vehicle>

    <vehicle id="flow_13_phase1_W_straight.12" type="moto" depart="306.00" departLane="1" departPos="162.1669" departSpeed="13.608" speedFactor="1.1365" arrival="339.00">
        <route edges="W_in E_out"/>
    </vehicle>

    <vehicle id="flow_15_phase1_W_right.5" type="car" depart="312.00" departLane="0" departPos="128.7404" departSpeed="3.5063" speedFactor="0.9653" arrival="343.00">
        <route edges="W_in S_out"/>
    </vehicle>

    <vehicle id="flow_7_phase1_S_right.5" type="truck" depart="309.00" departLane="1" departPos="102.4537" departSpeed="0.631" speedFactor="1.0532" arrival="348.00">
        <route edges="E_in S_out"/>
    </vehicle>

    <vehicle id="flow_3_phase1_N_right.5" type="moto" depart="325.00" departLane="0" departPos="184.7809" departSpeed="4.6591" speedFactor="0.9059" arrival="354.00">
        <route edges="N_in W_out"/>
    </vehicle>

    <vehicle id="flow_1_phase1_N_straight.12" type="truck" depart="309.00" departLane="1" departPos="11.9624" departSpeed="0.7597" speedFactor="0.9615" arrival="358.00">
        <route edges="N_in S_out"/>
    </vehicle>

    <vehicle id="flow_1_phase1_N_straight.13" type="truck" depart="334.00" departLane="1" departPos="177.3408" departSpeed="0.7525" speedFactor="0.9465" arrival="360.00">
        <route edges="N_in S_out"/>
    </vehicle>

    <vehicle id="flow_5_phase1_S_straight.12" type="moto" depart="302.00" departLane="1" departPos="66.1547" departSpeed="12.676" speedFactor="1.0699" arrival="361.00">
        <route edges="S_in W_out"/>
    </vehicle>

    <vehicle id="flow_6_phase1_S_left.5" type="bus" depart="318.00" departLane="0" departPos="28.3376" departSpeed="11.1345" speedFactor="0.9819" arrival="368.00">
        <route edges="S_in W_out"/>
    </vehicle>

    <vehicle id="flow_5_phase1_S_straight.13" type="moto" depart="327.00" departLane="1" departPos="100.5913" departSpeed="14.1028" speedFactor="1.2148" arrival="370.00">
        <route edges="S_in W_out"/>
    </vehicle>

    <vehicle id="flow_14_phase1_W_left.5" type="bus" depart="328.00" departLane="0" departPos="68.0447" departSpeed="6.9126" speedFactor="0.9554" arrival="374.00">
        <route edges="S_in W_out"/>
    </vehicle>

    <vehicle id="flow_9_phase1_E_straight.13" type="moto" depart="319.00" departLane="1" departPos="21.3277" departSpeed="6.6132" speedFactor="0.9282" arrival="378.00">
        <route edges="E_in W_out"/>
    </vehicle>

    <vehicle id="flow_13_phase1_W_straight.13" type="moto" depart="331.00" departLane="1" departPos="81.4827" departSpeed="3.3257" speedFactor="0.8917" arrival="378.00">
        <route edges="W_in E_out"/>
    </vehicle>

    <vehicle id="flow_10_phase1_E_left.5" type="moto" depart="319.00" departLane="1" departPos="38.4375" departSpeed="1.24" speedFactor="1.0856" arrival="379.00">
        <route edges="E_in S_out"/>
    </vehicle>

    <vehicle id="flow_9_phase1_E_straight.14" type="moto" depart="343.00" departLane="0" departPos="162.3176" departSpeed="7.1648" speedFactor="0.8543" arrival="380.00">
        <route edges="E_in W_out"/>
    </vehicle>

    <vehicle id="flow_13_phase1_W_straight.14" type="moto" depart="357.00" departLane="0" departPos="102.4343" departSpeed="0.0825" speedFactor="1.1523" arrival="381.00">
        <route edges="W_in E_out"/>
    </vehicle>

    <vehicle id="flow_1_phase1_N_straight.14" type="car" depart="360.00" departLane="1" departPos="62.3987" departSpeed="9.8958" speedFactor="0.9718" arrival="388.00">
        <route edges="N_in S_out"/>
    </vehicle>

    <vehicle id="flow_5_phase1_S_straight.14" type="car" depart="352.00" departLane="0" departPos="98.0837" departSpeed="7.1082" speedFactor="0.8047" arrival="393.00">
        <route edges="S_in W_out"/>
    </vehicle>

    <vehicle id="flow_2_phase1_N_left.6" type="moto" depart="373.00" departLane="1" departPos="180.2387" departSpeed="6.9301" speedFactor="0.8416" arrival="395.00">
        <route edges="N_in E_out"/>
    </vehicle>

    <vehicle id="flow_8_phase1_S_uturn.3" type="moto" depart="376.00" departLane="1" departPos="149.4259" departSpeed="3.126" speedFactor="1.0747" arrival="400.00">
        <route edges="S_in S_out"/>
    </vehicle>

    <vehicle id="flow_5_phase1_S_straight.15" type="container" depart="378.00" departLane="0" departPos="188.0912" departSpeed="1.5078" speedFactor="0.9628" arrival="408.00">
        <route edges="S_in W_out"/>
    </vehicle>

    <vehicle id="flow_7_phase1_S_right.6" type="car" depart="371.00" departLane="1" departPos="144.3484" departSpeed="1.8696" speedFactor="1.1275" arrival="411.00">
        <route edges="E_in S_out"/>
    </vehicle>

    <vehicle id="flow_4_phase1_N_uturn.3" type="bus" depart="377.00" departLane="1" departPos="28.4645" departSpeed="7.3386" speedFactor="0.9700" arrival="412.00">
        <route edges="N_in N_out"/>
    </vehicle>

    <vehicle id="flow_15_phase1_W_right.6" type="car" depart="375.00" departLane="0" departPos="142.3358" departSpeed="8.3966" speedFactor="0.8963" arrival="413.00">
        <route edges="W_in S_out"/>
    </vehicle>

    <vehicle id="flow_13_phase1_W_straight.15" type="car" depart="382.00" departLane="1" departPos="20.6867" departSpeed="9.3462" speedFactor="1.0262" arrival="414.00">
        <route edges="W_in E_out"/>
    </vehicle>

    <vehicle id="flow_11_phase1_E_right.6" type="car" depart="371.00" departLane="0" departPos="26.4929" departSpeed="0.5456" speedFactor="0.9838" arrival="417.00">
        <route edges="E_in N_out"/>
    </vehicle>

    <vehicle id="flow_9_phase1_E_straight.15" type="bus" depart="367.00" departLane="0" departPos="108.1078" departSpeed="1.7938" speedFactor="0.8815" arrival="418.00">
        <route edges="E_in W_out"/>
    </vehicle>

    <vehicle id="flow_12_phase1_E_uturn.3" type="car" depart="376.00" departLane="0" departPos="98.4033" departSpeed="5.6366" speedFactor="0.9559" arrival="418.00">
        <route edges="E_in E_out"/>
    </vehicle>

    <vehicle id="flow_9_phase1_E_straight.16" type="moto" depart="392.00" departLane="0" departPos="135.4921" departSpeed="4.8365" speedFactor="0.8950" arrival="421.00">
        <route edges="E_in W_out"/>
    </vehicle>
