<?xml version="1.0" encoding="UTF-8"?>

<!-- generated on 2025-12-09 20:38:08 by Eclipse SUMO sumo Version 1.18.0
<configuration xmlns:xsi="http://www.w3.org/2001/XMLSchema-instance" xsi:noNamespaceSchemaLocation="http://sumo.dlr.de/xsd/sumoConfiguration.xsd">

    <input>
        <net-file value="nets/60p2k/net.net.xml"/>
        <route-files value="nets/60p2k/route_temp_26_124611776755504_93502079.rou.xml"/>
    </input>

    <output>
        <summary-output value="result_ddqn_1.0_0.1/summary_ep_5.xml"/>
        <tripinfo-output value="result_ddqn_1.0_0.1/tripinfo_ep_5.xml"/>
        <vehroute-output value="result_ddqn_1.0_0.1/vehroute_ep_5.xml"/>
    </output>

    <time>
        <begin value="0"/>
    </time>

    <report>
        <verbose value="true"/>
        <no-warnings value="true"/>
        <no-step-log value="true"/>
    </report>

    <traci_server>
        <remote-port value="58947"/>
    </traci_server>

    <gui_only>
        <gui-settings-file value="nets/60p2k/gui-settings.xml"/>
        <quit-on-end value="true"/>
    </gui_only>

</configuration>
-->

<routes xmlns:xsi="http://www.w3.org/2001/XMLSchema-instance" xsi:noNamespaceSchemaLocation="http://sumo.dlr.de/xsd/routes_file.xsd">
    <vehicle id="flow_3_phase1_N_right.0" type="car" depart="0.00" departLane="0" departPos="103.3842" departSpeed="3.7523" speedFactor="1.0907" arrival="24.00">
        <route edges="N_in W_out"/>
    </vehicle>

    <vehicle id="flow_8_phase1_S_uturn.0" type="moto" depart="0.00" departLane="0" departPos="120.1072" departSpeed="4.4837" speedFactor="1.0505" arrival="24.00">
        <route edges="S_in S_out"/>
    </vehicle>

    <vehicle id="flow_5_phase1_S_straight.0" type="moto" depart="0.00" departLane="1" departPos="107.3659" departSpeed="7.2113" speedFactor="1.1475" arrival="25.00">
        <route edges="S_in N_out"/>
    </vehicle>

    <vehicle id="flow_6_phase1_S_left.0" type="moto" depart="0.00" departLane="1" departPos="166.0107" departSpeed="0.7376" speedFactor="0.8806" arrival="25.00">
        <route edges="S_in W_out"/>
    </vehicle>

    <vehicle id="flow_4_phase1_N_uturn.0" type="car" depart="0.00" departLane="1" departPos="127.6015" departSpeed="0.0774" speedFactor="0.9228" arrival="32.00">
        <route edges="N_in N_out"/>
    </vehicle>

    <vehicle id="flow_15_phase1_W_right.0" type="moto" depart="0.00" departLane="0" departPos="108.377" departSpeed="2.6276" speedFactor="0.8472" arrival="39.00">
        <route edges="W_in S_out"/>
    </vehicle>

    <vehicle id="flow_16_phase1_W_uturn.0" type="moto" depart="0.00" departLane="0" departPos="126.6766" departSpeed="11.7148" speedFactor="1.0383" arrival="39.00">
        <route edges="W_in W_out"/>
    </vehicle>

    <vehicle id="flow_9_phase1_E_straight.0" type="truck" depart="0.00" departLane="0" departPos="168.2937" departSpeed="9.8263" speedFactor="0.8990" arrival="41.00">
        <route edges="E_in W_out"/>
    </vehicle>

    <vehicle id="flow_14_phase1_W_left.0" type="moto" depart="0.00" departLane="1" departPos="182.8773" departSpeed="5.6108" speedFactor="1.0101" arrival="41.00">
        <route edges="W_in N_out"/>
    </vehicle>

    <vehicle id="flow_11_phase1_E_right.0" type="bus" depart="0.00" departLane="1" departPos="144.9496" departSpeed="4.0187" speedFactor="0.9581" arrival="42.00">
        <route edges="E_in N_out"/>
    </vehicle>

    <vehicle id="flow_13_phase1_W_straight.0" type="container" depart="0.00" departLane="0" departPos="24.5296" departSpeed="3.7887" speedFactor="0.8227" arrival="43.00">
        <route edges="W_in E_out"/>
    </vehicle>

    <vehicle id="flow_10_phase1_E_left.0" type="truck" depart="0.00" departLane="0" departPos="44.8816" departSpeed="7.6878" speedFactor="1.0161" arrival="48.00">
        <route edges="E_in S_out"/>
    </vehicle>

    <vehicle id="flow_2_phase1_N_left.0" type="moto" depart="0.00" departLane="1" departPos="8.2688" departSpeed="8.3291" speedFactor="1.0157" arrival="49.00">
        <route edges="N_in E_out"/>
    </vehicle>

    <vehicle id="flow_5_phase1_S_straight.1" type="moto" depart="26.00" departLane="1" departPos="31.9285" departSpeed="9.2811" speedFactor="1.1853" arrival="51.00">
        <route edges="S_in N_out"/>
    </vehicle>

    <vehicle id="flow_1_phase1_N_straight.0" type="bus" depart="0.00" departLane="0" departPos="8.6229" departSpeed="8.5053" speedFactor="0.8588" arrival="56.00">
        <route edges="N_in S_out"/>
    </vehicle>

    <vehicle id="flow_7_phase1_S_right.0" type="container" depart="0.00" departLane="0" departPos="8.759" departSpeed="8.0654" speedFactor="0.8488" arrival="56.00">
        <route edges="S_in E_out"/>
    </vehicle>

    <vehicle id="flow_1_phase1_N_straight.1" type="moto" depart="26.00" departLane="1" departPos="58.3562" departSpeed="11.6446" speedFactor="0.8727" arrival="56.00">
        <route edges="N_in S_out"/>
    </vehicle>

    <vehicle id="flow_9_phase1_E_straight.1" type="moto" depart="25.00" departLane="0" departPos="131.129" departSpeed="9.5396" speedFactor="1.1582" arrival="60.00">
        <route edges="E_in W_out"/>
    </vehicle>

    <vehicle id="flow_13_phase1_W_straight.1" type="car" depart="26.00" departLane="1" departPos="121.6549" departSpeed="2.8591" speedFactor="1.1218" arrival="61.00">
        <route edges="W_in E_out"/>
    </vehicle>

    <vehicle id="flow_12_phase1_E_uturn.0" type="moto" depart="0.00" departLane="0" departPos="5.6544" departSpeed="13.7593" speedFactor="1.0348" arrival="64.00">
        <route edges="E_in E_out"/>
    </vehicle>

    <vehicle id="flow_1_phase1_N_straight.2" type="moto" depart="52.00" departLane="1" departPos="107.5311" departSpeed="1.1094" speedFactor="0.9279" arrival="78.00">
        <route edges="N_in S_out"/>
    </vehicle>

    <vehicle id="flow_5_phase1_S_straight.2" type="moto" depart="51.00" departLane="1" departPos="12.6982" departSpeed="12.4143" speedFactor="0.9623" arrival="82.00">
        <route edges="S_in N_out"/>
    </vehicle>

    <vehicle id="flow_2_phase1_N_left.1" type="moto" depart="63.00" departLane="1" departPos="128.6773" departSpeed="3.0596" speedFactor="1.0365" arrival="87.00">
        <route edges="N_in E_out"/>
    </vehicle>

    <vehicle id="flow_6_phase1_S_left.1" type="moto" depart="64.00" departLane="1" departPos="110.9191" departSpeed="11.9947" speedFactor="1.0453" arrival="87.00">
        <route edges="S_in W_out"/>
    </vehicle>

    <vehicle id="flow_7_phase1_S_right.1" type="moto" depart="62.00" departLane="0" departPos="8.8817" departSpeed="2.8196" speedFactor="1.1228" arrival="93.00">
        <route edges="S_in E_out"/>
    </vehicle>

    <vehicle id="flow_9_phase1_E_straight.2" type="moto" depart="49.00" departLane="1" departPos="52.8684" departSpeed="0.3845" speedFactor="0.9938" arrival="98.00">
        <route edges="E_in W_out"/>
    </vehicle>

    <vehicle id="flow_15_phase1_W_right.1" type="moto" depart="63.00" departLane="0" departPos="73.8966" departSpeed="9.2239" speedFactor="1.0788" arrival="102.00">
        <route edges="W_in S_out"/>
    </vehicle>

    <vehicle id="flow_13_phase1_W_straight.2" type="bus" depart="51.00" departLane="1" departPos="59.5081" departSpeed="13.3195" speedFactor="0.9657" arrival="103.00">
        <route edges="W_in E_out"/>
    </vehicle>

    <vehicle id="flow_11_phase1_E_right.1" type="container" depart="62.00" departLane="1" departPos="66.71" departSpeed="7.8717" speedFactor="0.7845" arrival="108.00">
        <route edges="E_in N_out"/>
    </vehicle>

    <vehicle id="flow_5_phase1_S_straight.3" type="moto" depart="76.00" departLane="1" departPos="108.7646" departSpeed="13.0742" speedFactor="1.0764" arrival="110.00">
        <route edges="S_in N_out"/>
    </vehicle>

    <vehicle id="flow_14_phase1_W_left.1" type="container" depart="66.00" departLane="1" departPos="175.3621" departSpeed="7.2456" speedFactor="0.9146" arrival="111.00">
        <route edges="W_in N_out"/>
    </vehicle>

    <vehicle id="flow_3_phase1_N_right.1" type="moto" depart="65.00" departLane="0" departPos="19.8546" departSpeed="3.7056" speedFactor="0.8806" arrival="113.00">
        <route edges="N_in W_out"/>
    </vehicle>

    <vehicle id="flow_10_phase1_E_left.1" type="truck" depart="64.00" departLane="1" departPos="185.2056" departSpeed="3.6967" speedFactor="0.7665" arrival="115.00">
        <route edges="E_in S_out"/>
    </vehicle>

    <vehicle id="flow_1_phase1_N_straight.3" type="car" depart="78.00" departLane="0" departPos="19.2493" departSpeed="10.1885" speedFactor="1.0479" arrival="115.00">
        <route edges="N_in S_out"/>
    </vehicle>

    <vehicle id="flow_13_phase1_W_straight.3" type="moto" depart="77.00" departLane="1" departPos="77.9408" departSpeed="4.7411" speedFactor="1.2027" arrival="123.00">
        <route edges="W_in E_out"/>
    </vehicle>

    <vehicle id="flow_13_phase1_W_straight.4" type="bus" depart="102.00" departLane="0" departPos="167.2268" departSpeed="1.7052" speedFactor="0.8691" arrival="126.00">
        <route edges="W_in E_out"/>
    </vehicle>

    <vehicle id="flow_9_phase1_E_straight.4" type="bus" depart="98.00" departLane="0" departPos="148.0778" departSpeed="8.7623" speedFactor="0.9525" arrival="130.00">
        <route edges="E_in W_out"/>
    </vehicle>

    <vehicle id="flow_9_phase1_E_straight.3" type="bus" depart="74.00" departLane="0" departPos="134.7579" departSpeed="5.0315" speedFactor="0.8515" arrival="131.00">
        <route edges="E_in W_out"/>
    </vehicle>

    <vehicle id="flow_1_phase1_N_straight.4" type="truck" depart="103.00" departLane="0" departPos="8.0759" departSpeed="6.1345" speedFactor="0.9194" arrival="137.00">
        <route edges="N_in S_out"/>
    </vehicle>

    <vehicle id="flow_5_phase1_S_straight.4" type="container" depart="101.00" departLane="1" departPos="23.5668" departSpeed="9.6088" speedFactor="0.9706" arrival="145.00">
        <route edges="S_in N_out"/>
    </vehicle>

    <vehicle id="flow_7_phase1_S_right.2" type="moto" depart="124.00" departLane="1" departPos="171.4793" departSpeed="2.1268" speedFactor="0.9964" arrival="145.00">
        <route edges="S_in E_out"/>
    </vehicle>

    <vehicle id="flow_11_phase1_E_right.2" type="moto" depart="124.00" departLane="0" departPos="81.6907" departSpeed="10.5402" speedFactor="1.1432" arrival="149.00">
        <route edges="E_in N_out"/>
    </vehicle>

    <vehicle id="flow_9_phase1_E_straight.5" type="moto" depart="123.00" departLane="0" departPos="185.4693" departSpeed="4.1297" speedFactor="1.0283" arrival="150.00">
        <route edges="E_in W_out"/>
    </vehicle>

    <vehicle id="flow_15_phase1_W_right.2" type="truck" depart="125.00" departLane="1" departPos="108.7048" departSpeed="7.7407" speedFactor="0.9396" arrival="152.00">
        <route edges="W_in S_out"/>
    </vehicle>

    <vehicle id="flow_16_phase1_W_uturn.1" type="truck" depart="126.00" departLane="1" departPos="89.1662" departSpeed="9.897" speedFactor="0.8923" arrival="157.00">
        <route edges="W_in W_out"/>
    </vehicle>

    <vehicle id="flow_13_phase1_W_straight.5" type="moto" depart="128.00" departLane="1" departPos="21.6793" departSpeed="5.9481" speedFactor="1.0390" arrival="157.00">
        <route edges="W_in E_out"/>
    </vehicle>

    <vehicle id="flow_10_phase1_E_left.2" type="moto" depart="128.00" departLane="1" departPos="92.2234" departSpeed="0.1851" speedFactor="1.1413" arrival="161.00">
        <route edges="E_in S_out"/>
    </vehicle>

    <vehicle id="flow_3_phase1_N_right.2" type="moto" depart="130.00" departLane="1" departPos="159.9604" departSpeed="7.4822" speedFactor="1.1043" arrival="162.00">
        <route edges="N_in W_out"/>
    </vehicle>

    <vehicle id="flow_2_phase1_N_left.2" type="emergency" depart="125.00" departLane="0" departPos="71.9448" departSpeed="4.2354" speedFactor="1.0989" arrival="163.00">
        <route edges="N_in E_out"/>
    </vehicle>

    <vehicle id="flow_4_phase1_N_uturn.1" type="moto" depart="126.00" departLane="0" departPos="121.5569" departSpeed="11.3311" speedFactor="0.9517" arrival="164.00">
        <route edges="N_in N_out"/>
    </vehicle>

    <vehicle id="flow_5_phase1_S_straight.5" type="moto" depart="126.00" departLane="0" departPos="104.1356" departSpeed="11.6643" speedFactor="0.8882" arrival="165.00">
        <route edges="S_in N_out"/>
    </vehicle>

    <vehicle id="flow_8_phase1_S_uturn.1" type="moto" depart="126.00" departLane="1" departPos="168.2148" departSpeed="11.6281" speedFactor="0.9374" arrival="166.00">
        <route edges="S_in S_out"/>
    </vehicle>

    <vehicle id="flow_1_phase1_N_straight.5" type="moto" depart="129.00" departLane="1" departPos="74.602" departSpeed="10.2728" speedFactor="0.9020" arrival="166.00">
        <route edges="N_in S_out"/>
    </vehicle>

    <vehicle id="flow_6_phase1_S_left.2" type="moto" depart="128.00" departLane="1" departPos="124.8757" departSpeed="0.0127" speedFactor="1.0668" arrival="167.00">
        <route edges="S_in W_out"/>
    </vehicle>

    <vehicle id="flow_5_phase1_S_straight.6" type="moto" depart="151.00" departLane="1" departPos="152.0111" departSpeed="5.5953" speedFactor="1.0983" arrival="169.00">
        <route edges="S_in N_out"/>
    </vehicle>

    <vehicle id="flow_12_phase1_E_uturn.1" type="moto" depart="126.00" departLane="0" departPos="31.7588" departSpeed="12.8895" speedFactor="1.0265" arrival="176.00">
        <route edges="E_in E_out"/>
    </vehicle>

    <vehicle id="flow_9_phase1_E_straight.6" type="moto" depart="147.00" departLane="1" departPos="137.1078" departSpeed="4.5869" speedFactor="1.0203" arrival="176.00">
        <route edges="E_in W_out"/>
    </vehicle>

    <vehicle id="flow_14_phase1_W_left.2" type="car" depart="131.00" departLane="1" departPos="29.0743" departSpeed="2.5887" speedFactor="0.8975" arrival="181.00">
        <route edges="W_in N_out"/>
    </vehicle>

    <vehicle id="flow_13_phase1_W_straight.6" type="car" depart="153.00" departLane="0" departPos="24.5526" departSpeed="7.8618" speedFactor="0.9759" arrival="183.00">
        <route edges="W_in E_out"/>
    </vehicle>

    <vehicle id="flow_1_phase1_N_straight.6" type="car" depart="155.00" departLane="0" departPos="18.5245" departSpeed="1.5615" speedFactor="0.9797" arrival="187.00">
        <route edges="N_in S_out"/>
    </vehicle>

    <vehicle id="flow_9_phase1_E_straight.7" type="moto" depart="172.00" departLane="1" departPos="37.0366" departSpeed="3.1926" speedFactor="1.0085" arrival="201.00">
        <route edges="E_in W_out"/>
    </vehicle>

    <vehicle id="flow_15_phase1_W_right.3" type="moto" depart="188.00" departLane="1" departPos="86.4019" departSpeed="1.9109" speedFactor="1.1705" arrival="212.00">
        <route edges="W_in S_out"/>
    </vehicle>

    <vehicle id="flow_10_phase1_E_left.3" type="truck" depart="191.00" departLane="1" departPos="140.1205" departSpeed="11.738" speedFactor="1.0651" arrival="213.00">
        <route edges="E_in S_out"/>
    </vehicle>

    <vehicle id="flow_13_phase1_W_straight.7" type="moto" depart="179.00" departLane="0" departPos="36.1232" departSpeed="5.1819" speedFactor="0.8003" arrival="215.00">
        <route edges="W_in E_out"/>
    </vehicle>

    <vehicle id="flow_11_phase1_E_right.3" type="moto" depart="186.00" departLane="0" departPos="107.9927" departSpeed="0.9794" speedFactor="0.8330" arrival="216.00">
        <route edges="E_in N_out"/>
    </vehicle>

    <vehicle id="flow_7_phase1_S_right.3" type="moto" depart="186.00" departLane="1" departPos="150.3544" departSpeed="8.4424" speedFactor="1.0682" arrival="224.00">
        <route edges="S_in E_out"/>
    </vehicle>

    <vehicle id="flow_1_phase1_N_straight.7" type="moto" depart="180.00" departLane="1" departPos="41.8299" departSpeed="13.8944" speedFactor="1.0626" arrival="225.00">
        <route edges="N_in S_out"/>
    </vehicle>

    <vehicle id="flow_3_phase1_N_right.3" type="moto" depart="195.00" departLane="1" departPos="74.7856" departSpeed="2.548" speedFactor="0.9618" arrival="228.00">
        <route edges="N_in W_out"/>
    </vehicle>

    <vehicle id="flow_5_phase1_S_straight.8" type="emergency" depart="202.00" departLane="1" departPos="42.0768" departSpeed="14.3132" speedFactor="1.1380" arrival="230.00">
        <route edges="S_in N_out"/>
    </vehicle>

    <vehicle id="flow_5_phase1_S_straight.7" type="bus" depart="176.00" departLane="1" departPos="47.4954" departSpeed="4.0315" speedFactor="0.9040" arrival="231.00">
        <route edges="S_in N_out"/>
    </vehicle>

    <vehicle id="flow_2_phase1_N_left.3" type="moto" depart="187.00" departLane="0" departPos="140.508" departSpeed="9.25" speedFactor="0.8878" arrival="238.00">
        <route edges="N_in E_out"/>
    </vehicle>

    <vehicle id="flow_1_phase1_N_straight.8" type="moto" depart="206.00" departLane="1" departPos="84.7431" departSpeed="3.5745" speedFactor="0.9730" arrival="238.00">
        <route edges="N_in S_out"/>
    </vehicle>

    <vehicle id="flow_9_phase1_E_straight.8" type="moto" depart="196.00" departLane="1" departPos="2.2093" departSpeed="6.8921" speedFactor="0.9385" arrival="239.00">
        <route edges="E_in W_out"/>
    </vehicle>

    <vehicle id="flow_6_phase1_S_left.3" type="car" depart="191.00" departLane="1" departPos="16.1283" departSpeed="8.9746" speedFactor="1.0972" arrival="240.00">
        <route edges="S_in W_out"/>
    </vehicle>

    <vehicle id="flow_9_phase1_E_straight.9" type="truck" depart="221.00" departLane="0" departPos="157.0309" departSpeed="10.5982" speedFactor="1.0019" arrival="241.00">
        <route edges="E_in W_out"/>
    </vehicle>

    <vehicle id="flow_13_phase1_W_straight.8" type="moto" depart="204.00" departLane="0" departPos="35.6434" departSpeed="3.3434" speedFactor="1.0413" arrival="243.00">
        <route edges="W_in E_out"/>
    </vehicle>

    <vehicle id="flow_14_phase1_W_left.3" type="moto" depart="197.00" departLane="1" departPos="103.4641" departSpeed="3.4813" speedFactor="1.0873" arrival="244.00">
        <route edges="W_in N_out"/>
    </vehicle>

    <vehicle id="flow_13_phase1_W_straight.9" type="moto" depart="229.00" departLane="1" departPos="109.1161" departSpeed="2.4692" speedFactor="0.8391" arrival="257.00">
        <route edges="W_in E_out"/>
    </vehicle>

    <vehicle id="flow_5_phase1_S_straight.9" type="moto" depart="227.00" departLane="1" departPos="69.3051" departSpeed="14.9998" speedFactor="1.2976" arrival="260.00">
        <route edges="S_in N_out"/>
    </vehicle>

    <vehicle id="flow_1_phase1_N_straight.9" type="truck" depart="232.00" departLane="1" departPos="5.9732" departSpeed="0.4239" speedFactor="0.9670" arrival="269.00">
        <route edges="N_in S_out"/>
    </vehicle>

    <vehicle id="flow_9_phase1_E_straight.10" type="moto" depart="245.00" departLane="0" departPos="65.0172" departSpeed="3.1319" speedFactor="1.1157" arrival="272.00">
        <route edges="E_in W_out"/>
    </vehicle>

    <vehicle id="flow_15_phase1_W_right.4" type="moto" depart="250.00" departLane="1" departPos="168.3233" departSpeed="4.6963" speedFactor="0.9897" arrival="274.00">
        <route edges="W_in S_out"/>
    </vehicle>

    <vehicle id="flow_13_phase1_W_straight.10" type="moto" depart="255.00" departLane="0" departPos="123.2337" departSpeed="13.3863" speedFactor="1.1421" arrival="274.00">
        <route edges="W_in E_out"/>
    </vehicle>

    <vehicle id="flow_11_phase1_E_right.4" type="container" depart="247.00" departLane="0" departPos="96.1141" departSpeed="8.1699" speedFactor="1.0240" arrival="275.00">
        <route edges="E_in N_out"/>
    </vehicle>

    <vehicle id="flow_16_phase1_W_uturn.2" type="car" depart="252.00" departLane="1" departPos="146.8151" departSpeed="11.3045" speedFactor="0.8850" arrival="279.00">
        <route edges="W_in W_out"/>
    </vehicle>

    <vehicle id="flow_12_phase1_E_uturn.2" type="car" depart="251.00" departLane="0" departPos="9.1985" departSpeed="12.8223" speedFactor="1.0323" arrival="284.00">
        <route edges="E_in E_out"/>
    </vehicle>

    <vehicle id="flow_7_phase1_S_right.4" type="moto" depart="247.00" departLane="1" departPos="150.7313" departSpeed="0.5302" speedFactor="0.9645" arrival="287.00">
        <route edges="S_in E_out"/>
    </vehicle>

    <vehicle id="flow_5_phase1_S_straight.10" type="moto" depart="252.00" departLane="0" departPos="2.1035" departSpeed="10.5656" speedFactor="1.0281" arrival="289.00">
        <route edges="S_in N_out"/>
    </vehicle>

    <vehicle id="flow_1_phase1_N_straight.10" type="bus" depart="257.00" departLane="1" departPos="169.9316" departSpeed="3.4529" speedFactor="1.0325" arrival="290.00">
        <route edges="N_in S_out"/>
    </vehicle>

    <vehicle id="flow_3_phase1_N_right.4" type="moto" depart="260.00" departLane="0" departPos="57.4616" departSpeed="5.8735" speedFactor="1.0387" arrival="290.00">
        <route edges="N_in W_out"/>
    </vehicle>

    <vehicle id="flow_2_phase1_N_left.4" type="moto" depart="249.00" departLane="0" departPos="90.8186" departSpeed="11.2671" speedFactor="1.1571" arrival="291.00">
        <route edges="N_in E_out"/>
    </vehicle>

    <vehicle id="flow_8_phase1_S_uturn.2" type="bus" depart="251.00" departLane="0" departPos="45.7887" departSpeed="8.1991" speedFactor="0.9032" arrival="292.00">
        <route edges="S_in S_out"/>
    </vehicle>

    <vehicle id="flow_6_phase1_S_left.4" type="moto" depart="255.00" departLane="0" departPos="5.0473" departSpeed="11.5237" speedFactor="1.0387" arrival="292.00">
        <route edges="S_in W_out"/>
    </vehicle>

    <vehicle id="flow_4_phase1_N_uturn.2" type="bus" depart="251.00" departLane="1" departPos="40.9491" departSpeed="1.9885" speedFactor="0.9315" arrival="297.00">
        <route edges="N_in N_out"/>
    </vehicle>

    <vehicle id="flow_9_phase1_E_straight.11" type="moto" depart="270.00" departLane="0" departPos="184.7562" departSpeed="4.6714" speedFactor="1.0448" arrival="300.00">
        <route edges="E_in W_out"/>
    </vehicle>

    <vehicle id="flow_10_phase1_E_left.4" type="moto" depart="255.00" departLane="1" departPos="34.8311" departSpeed="6.5373" speedFactor="1.0039" arrival="301.00">
        <route edges="E_in S_out"/>
    </vehicle>

    <vehicle id="flow_13_phase1_W_straight.11" type="moto" depart="280.00" departLane="1" departPos="168.8768" departSpeed="5.6106" speedFactor="1.0140" arrival="304.00">
        <route edges="W_in E_out"/>
    </vehicle>

    <vehicle id="flow_14_phase1_W_left.4" type="bus" depart="262.00" departLane="0" departPos="131.4461" departSpeed="10.8698" speedFactor="0.8196" arrival="308.00">
        <route edges="W_in N_out"/>
    </vehicle>

    <vehicle id="flow_5_phase1_S_straight.11" type="bus" depart="277.00" departLane="0" departPos="114.5714" departSpeed="10.7436" speedFactor="0.9784" arrival="317.00">
        <route edges="S_in N_out"/>
    </vehicle>

    <vehicle id="flow_1_phase1_N_straight.11" type="truck" depart="283.00" departLane="0" departPos="161.6079" departSpeed="0.9958" speedFactor="0.9137" arrival="318.00">
        <route edges="N_in S_out"/>
    </vehicle>

    <vehicle id="flow_1_phase1_N_straight.12" type="truck" depart="309.00" departLane="1" departPos="133.5978" departSpeed="9.1244" speedFactor="0.9615" arrival="330.00">
        <route edges="N_in S_out"/>
    </vehicle>

    <vehicle id="flow_11_phase1_E_right.5" type="moto" depart="309.00" departLane="1" departPos="49.5467" departSpeed="9.5365" speedFactor="1.2552" arrival="335.00">
        <route edges="E_in N_out"/>
    </vehicle>

    <vehicle id="flow_13_phase1_W_straight.12" type="moto" depart="306.00" departLane="0" departPos="8.1725" departSpeed="3.9402" speedFactor="1.1365" arrival="336.00">
        <route edges="W_in E_out"/>
    </vehicle>

    <vehicle id="flow_9_phase1_E_straight.12" type="moto" depart="294.00" departLane="1" departPos="187.4776" departSpeed="0.1094" speedFactor="1.0047" arrival="337.00">
        <route edges="E_in W_out"/>
    </vehicle>

    <vehicle id="flow_15_phase1_W_right.5" type="car" depart="312.00" departLane="1" departPos="97.1832" departSpeed="3.68" speedFactor="0.9653" arrival="339.00">
        <route edges="W_in S_out"/>
    </vehicle>

    <vehicle id="flow_9_phase1_E_straight.13" type="moto" depart="319.00" departLane="1" departPos="80.1718" departSpeed="10.7995" speedFactor="0.9282" arrival="346.00">
        <route edges="E_in W_out"/>
    </vehicle>

    <vehicle id="flow_5_phase1_S_straight.12" type="moto" depart="302.00" departLane="0" departPos="10.777" departSpeed="2.1404" speedFactor="1.0699" arrival="348.00">
        <route edges="S_in N_out"/>
    </vehicle>

    <vehicle id="flow_5_phase1_S_straight.13" type="moto" depart="327.00" departLane="1" departPos="161.9597" departSpeed="5.7422" speedFactor="1.2148" arrival="349.00">
        <route edges="S_in N_out"/>
    </vehicle>

    <vehicle id="flow_7_phase1_S_right.5" type="truck" depart="309.00" departLane="0" departPos="144.3932" departSpeed="3.2271" speedFactor="1.0532" arrival="351.00">
        <route edges="S_in E_out"/>
    </vehicle>

    <vehicle id="flow_1_phase1_N_straight.13" type="truck" depart="334.00" departLane="0" departPos="187.7648" departSpeed="11.2632" speedFactor="0.9465" arrival="351.00">
        <route edges="N_in S_out"/>
    </vehicle>

    <vehicle id="flow_2_phase1_N_left.5" type="car" depart="311.00" departLane="0" departPos="154.6775" departSpeed="4.692" speedFactor="0.8868" arrival="357.00">
        <route edges="N_in E_out"/>
    </vehicle>

    <vehicle id="flow_6_phase1_S_left.5" type="bus" depart="318.00" departLane="1" departPos="15.5808" departSpeed="1.1431" speedFactor="0.9819" arrival="358.00">
        <route edges="S_in W_out"/>
    </vehicle>

    <vehicle id="flow_3_phase1_N_right.5" type="moto" depart="325.00" departLane="0" departPos="22.6696" departSpeed="6.6806" speedFactor="0.9059" arrival="359.00">
        <route edges="N_in W_out"/>
    </vehicle>

    <vehicle id="flow_13_phase1_W_straight.13" type="moto" depart="331.00" departLane="0" departPos="184.0677" departSpeed="5.0157" speedFactor="0.8917" arrival="364.00">
        <route edges="W_in E_out"/>
    </vehicle>

    <vehicle id="flow_10_phase1_E_left.5" type="moto" depart="319.00" departLane="0" departPos="11.4261" departSpeed="14.7063" speedFactor="1.0856" arrival="365.00">
        <route edges="E_in S_out"/>
    </vehicle>

    <vehicle id="flow_9_phase1_E_straight.14" type="moto" depart="343.00" departLane="0" departPos="116.7981" departSpeed="6.143" speedFactor="0.8543" arrival="369.00">
        <route edges="E_in W_out"/>
    </vehicle>

    <vehicle id="flow_13_phase1_W_straight.14" type="moto" depart="357.00" departLane="1" departPos="160.2411" departSpeed="5.2657" speedFactor="1.1523" arrival="374.00">
        <route edges="W_in E_out"/>
    </vehicle>

    <vehicle id="flow_14_phase1_W_left.5" type="bus" depart="328.00" departLane="0" departPos="44.9537" departSpeed="5.7073" speedFactor="0.9554" arrival="376.00">
        <route edges="W_in N_out"/>
    </vehicle>

    <vehicle id="flow_5_phase1_S_straight.14" type="car" depart="352.00" departLane="1" departPos="165.1863" departSpeed="6.043" speedFactor="0.8047" arrival="389.00">
        <route edges="S_in N_out"/>
    </vehicle>

    <vehicle id="flow_1_phase1_N_straight.14" type="car" depart="360.00" departLane="1" departPos="2.7138" departSpeed="7.7021" speedFactor="0.9718" arrival="392.00">
        <route edges="N_in S_out"/>
    </vehicle>

    <vehicle id="flow_15_phase1_W_right.6" type="car" depart="375.00" departLane="0" departPos="154.1317" departSpeed="9.8187" speedFactor="0.8963" arrival="399.00">
        <route edges="W_in S_out"/>
    </vehicle>

    <vehicle id="flow_9_phase1_E_straight.15" type="bus" depart="367.00" departLane="0" departPos="153.951" departSpeed="9.3285" speedFactor="0.8815" arrival="404.00">
        <route edges="E_in W_out"/>
    </vehicle>

    <vehicle id="flow_11_phase1_E_right.6" type="car" depart="371.00" departLane="0" departPos="122.1483" departSpeed="12.9996" speedFactor="0.9838" arrival="404.00">
        <route edges="E_in N_out"/>
    </vehicle>

    <vehicle id="flow_7_phase1_S_right.6" type="car" depart="371.00" departLane="0" departPos="9.9449" departSpeed="2.1899" speedFactor="1.1275" arrival="409.00">
        <route edges="S_in E_out"/>
    </vehicle>

    <vehicle id="flow_8_phase1_S_uturn.3" type="moto" depart="376.00" departLane="0" departPos="98.4033" departSpeed="6.3846" speedFactor="1.0747" arrival="410.00">
        <route edges="S_in S_out"/>
    </vehicle>

    <vehicle id="flow_1_phase1_N_straight.15" type="car" depart="386.00" departLane="0" departPos="164.3932" departSpeed="12.3676" speedFactor="0.9311" arrival="412.00">
        <route edges="N_in S_out"/>
    </vehicle>

    <vehicle id="flow_5_phase1_S_straight.15" type="container" depart="378.00" departLane="1" departPos="22.6964" departSpeed="3.4674" speedFactor="0.9628" arrival="413.00">
        <route edges="S_in N_out"/>
    </vehicle>

    <vehicle id="flow_3_phase1_N_right.6" type="truck" depart="390.00" departLane="0" departPos="135.4921" departSpeed="4.8824" speedFactor="0.9035" arrival="417.00">
        <route edges="N_in W_out"/>
    </vehicle>

    <vehicle id="flow_4_phase1_N_uturn.3" type="bus" depart="377.00" departLane="0" departPos="188.0912" departSpeed="1.5078" speedFactor="0.9700" arrival="419.00">
        <route edges="N_in N_out"/>
    </vehicle>

    <vehicle id="flow_6_phase1_S_left.6" type="bus" depart="382.00" departLane="1" departPos="12.5958" departSpeed="2.4614" speedFactor="1.0167" arrival="420.00">
        <route edges="S_in W_out"/>
    </vehicle>

    <vehicle id="flow_13_phase1_W_straight.15" type="car" depart="382.00" departLane="1" departPos="36.0857" departSpeed="4.0558" speedFactor="1.0262" arrival="424.00">
        <route edges="W_in E_out"/>
    </vehicle>
