<?xml version="1.0" encoding="UTF-8"?>

<!-- generated on 2025-12-10 00:04:47 by Eclipse SUMO sumo Version 1.18.0
<configuration xmlns:xsi="http://www.w3.org/2001/XMLSchema-instance" xsi:noNamespaceSchemaLocation="http://sumo.dlr.de/xsd/sumoConfiguration.xsd">

    <input>
        <net-file value="nets/120p4k/net.net.xml"/>
        <route-files value="nets/120p4k/route_120p4k.rou.xml"/>
    </input>

    <output>
        <summary-output value="result_baseline_1.5_0.1/summary_ep_1.xml"/>
        <tripinfo-output value="result_baseline_1.5_0.1/tripinfo_ep_1.xml"/>
        <vehroute-output value="result_baseline_1.5_0.1/vehroute_ep_1.xml"/>
    </output>

    <time>
        <begin value="0"/>
        <step-length value="1.0"/>
    </time>

    <processing>
        <scale value="1.5"/>
        <time-to-teleport value="600"/>
    </processing>

    <report>
        <verbose value="true"/>
    </report>

    <traci_server>
        <remote-port value="50735"/>
    </traci_server>

    <gui_only>
        <gui-settings-file value="nets/120p4k/gui-settings.xml"/>
    </gui_only>

</configuration>
-->

<tripinfos xmlns:xsi="http://www.w3.org/2001/XMLSchema-instance" xsi:noNamespaceSchemaLocation="http://sumo.dlr.de/xsd/tripinfo_file.xsd">
    <tripinfo id="flow_3_increasing_0_N_right.0" depart="0.00" departLane="N_in_0" departPos="103.38" departSpeed="3.81" departDelay="0.00" arrival="24.00" arrivalLane="W_out_0" arrivalPos="189.60" arrivalSpeed="15.18" duration="24.00" routeLength="284.85" waitingTime="0.00" waitingCount="0" stopTime="0.00" timeLoss="4.59" rerouteNo="0" devices="vehroute_flow_3_increasing_0_N_right.0 tripinfo_flow_3_increasing_0_N_right.0" vType="moto" speedFactor="1.11" vaporized=""/>
    <tripinfo id="flow_8_increasing_0_S_uturn.0" depart="0.00" departLane="S_in_0" departPos="120.11" departSpeed="4.48" departDelay="0.00" arrival="24.00" arrivalLane="S_out_1" arrivalPos="189.60" arrivalSpeed="13.35" duration="24.00" routeLength="263.76" waitingTime="0.00" waitingCount="0" stopTime="0.00" timeLoss="4.90" rerouteNo="0" devices="vehroute_flow_8_increasing_0_S_uturn.0 tripinfo_flow_8_increasing_0_S_uturn.0" vType="moto" speedFactor="1.05" vaporized=""/>
    <tripinfo id="flow_5_increasing_0_S_straight.0" depart="0.00" departLane="S_in_1" departPos="107.37" departSpeed="7.21" departDelay="0.00" arrival="25.00" arrivalLane="N_out_1" arrivalPos="189.60" arrivalSpeed="15.67" duration="25.00" routeLength="292.63" waitingTime="0.00" waitingCount="0" stopTime="0.00" timeLoss="6.12" rerouteNo="0" devices="vehroute_flow_5_increasing_0_S_straight.0 tripinfo_flow_5_increasing_0_S_straight.0" vType="moto" speedFactor="1.15" vaporized=""/>
    <tripinfo id="flow_6_increasing_0_S_left.0" depart="0.00" departLane="S_in_1" departPos="166.01" departSpeed="0.74" departDelay="0.00" arrival="25.00" arrivalLane="W_out_1" arrivalPos="189.60" arrivalSpeed="11.97" duration="25.00" routeLength="232.54" waitingTime="0.00" waitingCount="0" stopTime="0.00" timeLoss="4.34" rerouteNo="0" devices="vehroute_flow_6_increasing_0_S_left.0 tripinfo_flow_6_increasing_0_S_left.0" vType="moto" speedFactor="0.88" vaporized=""/>
    <tripinfo id="flow_2_increasing_0_N_left.0" depart="0.00" departLane="N_in_1" departPos="8.27" departSpeed="8.33" departDelay="0.00" arrival="32.00" arrivalLane="E_out_1" arrivalPos="189.60" arrivalSpeed="13.89" duration="32.00" routeLength="390.28" waitingTime="0.00" waitingCount="0" stopTime="0.00" timeLoss="3.35" rerouteNo="0" devices="vehroute_flow_2_increasing_0_N_left.0 tripinfo_flow_2_increasing_0_N_left.0" vType="moto" speedFactor="1.02" vaporized=""/>
    <tripinfo id="flow_4_increasing_0_N_uturn.0" depart="0.00" departLane="N_in_1" departPos="127.60" departSpeed="0.08" departDelay="0.00" arrival="32.00" arrivalLane="N_out_1" arrivalPos="189.60" arrivalSpeed="12.06" duration="32.00" routeLength="256.27" waitingTime="1.00" waitingCount="1" stopTime="0.00" timeLoss="9.79" rerouteNo="0" devices="vehroute_flow_4_increasing_0_N_uturn.0 tripinfo_flow_4_increasing_0_N_uturn.0" vType="moto" speedFactor="0.91" vaporized=""/>
    <tripinfo id="flow_1_increasing_0_N_straight.0" depart="0.00" departLane="N_in_0" departPos="8.62" departSpeed="8.51" departDelay="0.00" arrival="35.00" arrivalLane="S_out_0" arrivalPos="189.60" arrivalSpeed="11.79" duration="35.00" routeLength="391.38" waitingTime="0.00" waitingCount="0" stopTime="0.00" timeLoss="1.43" rerouteNo="0" devices="vehroute_flow_1_increasing_0_N_straight.0 tripinfo_flow_1_increasing_0_N_straight.0" vType="truck" speedFactor="0.86" vaporized=""/>
    <tripinfo id="flow_7_increasing_0_S_right.0" depart="0.00" departLane="S_in_0" departPos="8.76" departSpeed="8.47" departDelay="0.00" arrival="36.00" arrivalLane="E_out_0" arrivalPos="189.60" arrivalSpeed="11.79" duration="36.00" routeLength="379.47" waitingTime="0.00" waitingCount="0" stopTime="0.00" timeLoss="4.83" rerouteNo="0" devices="vehroute_flow_7_increasing_0_S_right.0 tripinfo_flow_7_increasing_0_S_right.0" vType="bus" speedFactor="0.89" vaporized=""/>
    <tripinfo id="flow_10_increasing_0_E_left.0" depart="0.00" departLane="E_in_0" departPos="44.88" departSpeed="8.19" departDelay="0.00" arrival="60.00" arrivalLane="S_out_1" arrivalPos="189.60" arrivalSpeed="13.77" duration="60.00" routeLength="353.67" waitingTime="27.00" waitingCount="1" stopTime="0.00" timeLoss="35.03" rerouteNo="0" devices="vehroute_flow_10_increasing_0_E_left.0 tripinfo_flow_10_increasing_0_E_left.0" vType="car" speedFactor="1.08" vaporized=""/>
    <tripinfo id="flow_9_increasing_0_E_straight.0" depart="0.00" departLane="E_in_0" departPos="168.29" departSpeed="10.73" departDelay="0.00" arrival="61.00" arrivalLane="W_out_0" arrivalPos="189.60" arrivalSpeed="12.33" duration="61.00" routeLength="231.71" waitingTime="36.00" waitingCount="1" stopTime="0.00" timeLoss="42.71" rerouteNo="0" devices="vehroute_flow_9_increasing_0_E_straight.0 tripinfo_flow_9_increasing_0_E_straight.0" vType="car" speedFactor="0.94" vaporized=""/>
    <tripinfo id="flow_15_increasing_0_W_right.0" depart="0.00" departLane="W_in_0" departPos="108.38" departSpeed="2.63" departDelay="0.00" arrival="62.00" arrivalLane="S_out_0" arrivalPos="189.60" arrivalSpeed="10.72" duration="62.00" routeLength="279.85" waitingTime="30.00" waitingCount="1" stopTime="0.00" timeLoss="37.11" rerouteNo="0" devices="vehroute_flow_15_increasing_0_W_right.0 tripinfo_flow_15_increasing_0_W_right.0" vType="moto" speedFactor="0.85" vaporized=""/>
    <tripinfo id="flow_1_increasing_0_N_straight.1" depart="42.00" departLane="N_in_1" departPos="121.65" departSpeed="2.92" departDelay="0.12" arrival="63.00" arrivalLane="S_out_1" arrivalPos="189.60" arrivalSpeed="14.99" duration="21.00" routeLength="278.35" waitingTime="0.00" waitingCount="0" stopTime="0.00" timeLoss="2.99" rerouteNo="0" devices="vehroute_flow_1_increasing_0_N_straight.1 tripinfo_flow_1_increasing_0_N_straight.1" vType="moto" speedFactor="1.15" vaporized=""/>
    <tripinfo id="flow_14_increasing_0_W_left.0" depart="0.00" departLane="W_in_1" departPos="182.88" departSpeed="5.61" departDelay="0.00" arrival="64.00" arrivalLane="N_out_1" arrivalPos="189.60" arrivalSpeed="12.84" duration="64.00" routeLength="215.67" waitingTime="37.00" waitingCount="1" stopTime="0.00" timeLoss="47.11" rerouteNo="0" devices="vehroute_flow_14_increasing_0_W_left.0 tripinfo_flow_14_increasing_0_W_left.0" vType="moto" speedFactor="1.01" vaporized=""/>
    <tripinfo id="flow_5_increasing_0_S_straight.1" depart="40.00" departLane="S_in_1" departPos="58.36" departSpeed="11.64" departDelay="0.20" arrival="70.00" arrivalLane="N_out_0" arrivalPos="189.60" arrivalSpeed="11.61" duration="30.00" routeLength="341.64" waitingTime="0.00" waitingCount="0" stopTime="0.00" timeLoss="1.45" rerouteNo="0" devices="vehroute_flow_5_increasing_0_S_straight.1 tripinfo_flow_5_increasing_0_S_straight.1" vType="moto" speedFactor="0.87" vaporized=""/>
    <tripinfo id="flow_12_increasing_0_E_uturn.0" depart="0.00" departLane="E_in_0" departPos="5.65" departSpeed="13.76" departDelay="0.00" arrival="106.00" arrivalLane="E_out_1" arrivalPos="189.60" arrivalSpeed="14.27" duration="106.00" routeLength="378.22" waitingTime="69.00" waitingCount="3" stopTime="0.00" timeLoss="78.08" rerouteNo="0" devices="vehroute_flow_12_increasing_0_E_uturn.0 tripinfo_flow_12_increasing_0_E_uturn.0" vType="moto" speedFactor="1.03" vaporized=""/>
    <tripinfo id="flow_16_increasing_0_W_uturn.0" depart="0.00" departLane="W_in_0" departPos="126.68" departSpeed="11.71" departDelay="0.00" arrival="106.00" arrivalLane="W_out_1" arrivalPos="189.60" arrivalSpeed="14.32" duration="106.00" routeLength="257.19" waitingTime="76.00" waitingCount="2" stopTime="0.00" timeLoss="86.45" rerouteNo="0" devices="vehroute_flow_16_increasing_0_W_uturn.0 tripinfo_flow_16_increasing_0_W_uturn.0" vType="moto" speedFactor="1.04" vaporized=""/>
    <tripinfo id="flow_11_increasing_0_E_right.0" depart="0.00" departLane="E_in_1" departPos="144.95" departSpeed="4.02" departDelay="0.00" arrival="109.00" arrivalLane="N_out_0" arrivalPos="189.60" arrivalSpeed="13.05" duration="109.00" routeLength="243.28" waitingTime="73.00" waitingCount="2" stopTime="0.00" timeLoss="89.43" rerouteNo="0" devices="vehroute_flow_11_increasing_0_E_right.0 tripinfo_flow_11_increasing_0_E_right.0" vType="bus" speedFactor="0.96" vaporized=""/>
    <tripinfo id="flow_1_increasing_0_N_straight.2" depart="84.00" departLane="N_in_1" departPos="107.53" departSpeed="1.11" departDelay="0.23" arrival="110.00" arrivalLane="S_out_0" arrivalPos="189.60" arrivalSpeed="12.83" duration="26.00" routeLength="292.47" waitingTime="0.00" waitingCount="0" stopTime="0.00" timeLoss="3.30" rerouteNo="0" devices="vehroute_flow_1_increasing_0_N_straight.2 tripinfo_flow_1_increasing_0_N_straight.2" vType="moto" speedFactor="0.93" vaporized=""/>
    <tripinfo id="flow_13_increasing_0_W_straight.0" depart="0.00" departLane="W_in_0" departPos="24.53" departSpeed="3.97" departDelay="0.00" arrival="111.00" arrivalLane="E_out_0" arrivalPos="189.60" arrivalSpeed="11.54" duration="111.00" routeLength="375.47" waitingTime="62.00" waitingCount="2" stopTime="0.00" timeLoss="79.20" rerouteNo="0" devices="vehroute_flow_13_increasing_0_W_straight.0 tripinfo_flow_13_increasing_0_W_straight.0" vType="bus" speedFactor="0.86" vaporized=""/>
    <tripinfo id="flow_5_increasing_0_S_straight.2" depart="80.00" departLane="S_in_1" departPos="12.70" departSpeed="12.41" departDelay="0.40" arrival="111.00" arrivalLane="N_out_1" arrivalPos="189.60" arrivalSpeed="13.37" duration="31.00" routeLength="387.30" waitingTime="0.00" waitingCount="0" stopTime="0.00" timeLoss="1.62" rerouteNo="0" devices="vehroute_flow_5_increasing_0_S_straight.2 tripinfo_flow_5_increasing_0_S_straight.2" vType="moto" speedFactor="0.96" vaporized=""/>
    <tripinfo id="flow_6_increasing_0_S_left.1" depart="100.00" departLane="S_in_0" departPos="156.52" departSpeed="9.22" departDelay="0.50" arrival="120.00" arrivalLane="W_out_1" arrivalPos="189.60" arrivalSpeed="13.84" duration="20.00" routeLength="242.03" waitingTime="0.00" waitingCount="0" stopTime="0.00" timeLoss="2.88" rerouteNo="0" devices="vehroute_flow_6_increasing_0_S_left.1 tripinfo_flow_6_increasing_0_S_left.1" vType="moto" speedFactor="1.08" vaporized=""/>
    <tripinfo id="flow_2_increasing_0_N_left.1" depart="98.00" departLane="N_in_0" departPos="8.88" departSpeed="2.82" departDelay="0.44" arrival="128.00" arrivalLane="E_out_1" arrivalPos="189.60" arrivalSpeed="14.95" duration="30.00" routeLength="389.67" waitingTime="0.00" waitingCount="0" stopTime="0.00" timeLoss="4.29" rerouteNo="0" devices="vehroute_flow_2_increasing_0_N_left.1 tripinfo_flow_2_increasing_0_N_left.1" vType="moto" speedFactor="1.12" vaporized=""/>
    <tripinfo id="flow_3_increasing_0_N_right.1" depart="105.00" departLane="N_in_1" departPos="134.76" departSpeed="6.26" departDelay="0.83" arrival="132.00" arrivalLane="W_out_0" arrivalPos="189.60" arrivalSpeed="12.68" duration="27.00" routeLength="253.47" waitingTime="0.00" waitingCount="0" stopTime="0.00" timeLoss="6.28" rerouteNo="0" devices="vehroute_flow_3_increasing_0_N_right.1 tripinfo_flow_3_increasing_0_N_right.1" vType="container" speedFactor="0.91" vaporized=""/>
    <tripinfo id="flow_7_increasing_0_S_right.1" depart="98.00" departLane="S_in_1" departPos="66.71" departSpeed="7.87" departDelay="0.44" arrival="134.00" arrivalLane="E_out_0" arrivalPos="189.60" arrivalSpeed="10.84" duration="36.00" routeLength="321.52" waitingTime="0.00" waitingCount="0" stopTime="0.00" timeLoss="5.18" rerouteNo="0" devices="vehroute_flow_7_increasing_0_S_right.1 tripinfo_flow_7_increasing_0_S_right.1" vType="container" speedFactor="0.78" vaporized=""/>
    <tripinfo id="flow_5_increasing_0_S_straight.3" depart="120.00" departLane="S_in_1" departPos="77.94" departSpeed="4.43" departDelay="0.60" arrival="144.00" arrivalLane="N_out_1" arrivalPos="189.60" arrivalSpeed="14.56" duration="24.00" routeLength="322.06" waitingTime="0.00" waitingCount="0" stopTime="0.00" timeLoss="2.22" rerouteNo="0" devices="vehroute_flow_5_increasing_0_S_straight.3 tripinfo_flow_5_increasing_0_S_straight.3" vType="moto" speedFactor="1.08" vaporized=""/>
    <tripinfo id="flow_1_increasing_0_N_straight.3" depart="126.00" departLane="N_in_0" departPos="148.08" departSpeed="9.73" departDelay="0.35" arrival="145.00" arrivalLane="S_out_0" arrivalPos="189.60" arrivalSpeed="14.24" duration="19.00" routeLength="251.92" waitingTime="0.00" waitingCount="0" stopTime="0.00" timeLoss="0.91" rerouteNo="0" devices="vehroute_flow_1_increasing_0_N_straight.3 tripinfo_flow_1_increasing_0_N_straight.3" vType="moto" speedFactor="1.06" vaporized=""/>
    <tripinfo id="flow_13_increasing_0_W_straight.1" depart="41.00" departLane="W_in_1" departPos="31.93" departSpeed="9.28" departDelay="0.60" arrival="148.00" arrivalLane="E_out_0" arrivalPos="189.60" arrivalSpeed="15.84" duration="107.00" routeLength="368.07" waitingTime="74.00" waitingCount="2" stopTime="0.00" timeLoss="83.72" rerouteNo="0" devices="vehroute_flow_13_increasing_0_W_straight.1 tripinfo_flow_13_increasing_0_W_straight.1" vType="moto" speedFactor="1.19" vaporized=""/>
    <tripinfo id="flow_9_increasing_0_E_straight.1" depart="39.00" departLane="E_in_0" departPos="131.13" departSpeed="9.54" departDelay="0.54" arrival="149.00" arrivalLane="W_out_0" arrivalPos="189.60" arrivalSpeed="15.77" duration="110.00" routeLength="268.87" waitingTime="79.00" waitingCount="2" stopTime="0.00" timeLoss="93.00" rerouteNo="0" devices="vehroute_flow_9_increasing_0_E_straight.1 tripinfo_flow_9_increasing_0_E_straight.1" vType="moto" speedFactor="1.16" vaporized=""/>
    <tripinfo id="flow_9_increasing_0_E_straight.2" depart="77.00" departLane="E_in_1" departPos="52.87" departSpeed="0.38" departDelay="0.08" arrival="151.00" arrivalLane="W_out_0" arrivalPos="189.60" arrivalSpeed="13.75" duration="74.00" routeLength="347.13" waitingTime="34.00" waitingCount="1" stopTime="0.00" timeLoss="47.97" rerouteNo="0" devices="vehroute_flow_9_increasing_0_E_straight.2 tripinfo_flow_9_increasing_0_E_straight.2" vType="moto" speedFactor="0.99" vaporized=""/>
    <tripinfo id="flow_13_increasing_0_W_straight.2" depart="81.00" departLane="W_in_1" departPos="59.51" departSpeed="13.32" departDelay="0.19" arrival="154.00" arrivalLane="E_out_0" arrivalPos="189.60" arrivalSpeed="13.35" duration="73.00" routeLength="340.49" waitingTime="33.00" waitingCount="2" stopTime="0.00" timeLoss="47.45" rerouteNo="0" devices="vehroute_flow_13_increasing_0_W_straight.2 tripinfo_flow_13_increasing_0_W_straight.2" vType="truck" speedFactor="0.97" vaporized=""/>
    <tripinfo id="flow_5_increasing_0_S_straight.4" depart="160.00" departLane="S_in_0" departPos="167.23" departSpeed="1.90" departDelay="0.80" arrival="185.00" arrivalLane="N_out_0" arrivalPos="189.60" arrivalSpeed="13.25" duration="25.00" routeLength="232.77" waitingTime="0.00" waitingCount="0" stopTime="0.00" timeLoss="7.06" rerouteNo="0" devices="vehroute_flow_5_increasing_0_S_straight.4 tripinfo_flow_5_increasing_0_S_straight.4" vType="container" speedFactor="0.97" vaporized=""/>
    <tripinfo id="flow_1_increasing_0_N_straight.4" depart="168.00" departLane="N_in_0" departPos="185.47" departSpeed="9.03" departDelay="0.46" arrival="186.00" arrivalLane="S_out_0" arrivalPos="189.60" arrivalSpeed="12.99" duration="18.00" routeLength="214.53" waitingTime="0.00" waitingCount="0" stopTime="0.00" timeLoss="1.07" rerouteNo="0" devices="vehroute_flow_1_increasing_0_N_straight.4 tripinfo_flow_1_increasing_0_N_straight.4" vType="car" speedFactor="0.96" vaporized=""/>
    <tripinfo id="flow_15_increasing_0_W_right.1" depart="99.00" departLane="W_in_1" departPos="128.68" departSpeed="3.06" departDelay="0.96" arrival="194.00" arrivalLane="S_out_0" arrivalPos="189.60" arrivalSpeed="13.56" duration="95.00" routeLength="259.55" waitingTime="62.00" waitingCount="2" stopTime="0.00" timeLoss="75.76" rerouteNo="0" devices="vehroute_flow_15_increasing_0_W_right.1 tripinfo_flow_15_increasing_0_W_right.1" vType="moto" speedFactor="1.04" vaporized=""/>
    <tripinfo id="flow_14_increasing_0_W_left.1" depart="100.00" departLane="W_in_0" departPos="69.24" departSpeed="6.06" departDelay="0.50" arrival="195.00" arrivalLane="N_out_1" arrivalPos="189.60" arrivalSpeed="14.17" duration="95.00" routeLength="329.31" waitingTime="61.00" waitingCount="2" stopTime="0.00" timeLoss="71.20" rerouteNo="0" devices="vehroute_flow_14_increasing_0_W_left.1 tripinfo_flow_14_increasing_0_W_left.1" vType="moto" speedFactor="1.05" vaporized=""/>
    <tripinfo id="flow_11_increasing_0_E_right.1" depart="102.00" departLane="E_in_1" departPos="118.54" departSpeed="10.72" departDelay="0.48" arrival="196.00" arrivalLane="N_out_0" arrivalPos="189.60" arrivalSpeed="11.83" duration="94.00" routeLength="269.69" waitingTime="63.00" waitingCount="2" stopTime="0.00" timeLoss="71.25" rerouteNo="0" devices="vehroute_flow_11_increasing_0_E_right.1 tripinfo_flow_11_increasing_0_E_right.1" vType="moto" speedFactor="0.88" vaporized=""/>
    <tripinfo id="flow_10_increasing_0_E_left.1" depart="102.00" departLane="E_in_1" departPos="57.40" departSpeed="0.26" departDelay="0.48" arrival="200.00" arrivalLane="S_out_0" arrivalPos="189.60" arrivalSpeed="9.59" duration="98.00" routeLength="341.15" waitingTime="52.00" waitingCount="2" stopTime="0.00" timeLoss="64.98" rerouteNo="0" devices="vehroute_flow_10_increasing_0_E_left.1 tripinfo_flow_10_increasing_0_E_left.1" vType="car" speedFactor="0.77" vaporized=""/>
    <tripinfo id="flow_4_increasing_0_N_uturn.1" depart="192.00" departLane="N_in_1" departPos="171.48" departSpeed="2.19" departDelay="0.61" arrival="214.00" arrivalLane="N_out_1" arrivalPos="189.60" arrivalSpeed="13.02" duration="22.00" routeLength="212.39" waitingTime="0.00" waitingCount="0" stopTime="0.00" timeLoss="5.00" rerouteNo="0" devices="vehroute_flow_4_increasing_0_N_uturn.1 tripinfo_flow_4_increasing_0_N_uturn.1" vType="moto" speedFactor="1.03" vaporized=""/>
    <tripinfo id="flow_7_increasing_0_S_right.2" depart="196.00" departLane="S_in_0" departPos="121.56" departSpeed="11.75" departDelay="0.88" arrival="220.00" arrivalLane="E_out_0" arrivalPos="189.60" arrivalSpeed="13.34" duration="24.00" routeLength="266.67" waitingTime="0.00" waitingCount="0" stopTime="0.00" timeLoss="3.39" rerouteNo="0" devices="vehroute_flow_7_increasing_0_S_right.2 tripinfo_flow_7_increasing_0_S_right.2" vType="car" speedFactor="0.99" vaporized=""/>
    <tripinfo id="flow_6_increasing_0_S_left.2" depart="200.00" departLane="S_in_1" departPos="89.17" departSpeed="11.39" departDelay="1.00" arrival="226.00" arrivalLane="W_out_1" arrivalPos="189.60" arrivalSpeed="14.06" duration="26.00" routeLength="309.38" waitingTime="0.00" waitingCount="0" stopTime="0.00" timeLoss="3.05" rerouteNo="0" devices="vehroute_flow_6_increasing_0_S_left.2 tripinfo_flow_6_increasing_0_S_left.2" vType="moto" speedFactor="1.03" vaporized=""/>
    <tripinfo id="flow_5_increasing_0_S_straight.5" depart="199.00" departLane="S_in_0" departPos="31.76" departSpeed="11.77" departDelay="0.00" arrival="229.00" arrivalLane="N_out_0" arrivalPos="189.60" arrivalSpeed="12.77" duration="30.00" routeLength="368.24" waitingTime="0.00" waitingCount="0" stopTime="0.00" timeLoss="1.44" rerouteNo="0" devices="vehroute_flow_5_increasing_0_S_straight.5 tripinfo_flow_5_increasing_0_S_straight.5" vType="moto" speedFactor="0.94" vaporized=""/>
    <tripinfo id="flow_13_increasing_0_W_straight.3" depart="122.00" departLane="W_in_0" departPos="19.25" departSpeed="11.19" departDelay="0.79" arrival="238.00" arrivalLane="E_out_0" arrivalPos="189.60" arrivalSpeed="15.72" duration="116.00" routeLength="380.75" waitingTime="81.00" waitingCount="2" stopTime="0.00" timeLoss="92.09" rerouteNo="0" devices="vehroute_flow_13_increasing_0_W_straight.3 tripinfo_flow_13_increasing_0_W_straight.3" vType="moto" speedFactor="1.20" vaporized=""/>
    <tripinfo id="flow_3_increasing_0_N_right.2" depart="209.00" departLane="N_in_0" departPos="87.76" departSpeed="9.83" departDelay="0.67" arrival="238.00" arrivalLane="W_out_0" arrivalPos="189.60" arrivalSpeed="12.15" duration="29.00" routeLength="300.47" waitingTime="0.00" waitingCount="0" stopTime="0.00" timeLoss="3.65" rerouteNo="0" devices="vehroute_flow_3_increasing_0_N_right.2 tripinfo_flow_3_increasing_0_N_right.2" vType="moto" speedFactor="0.90" vaporized=""/>
    <tripinfo id="flow_2_increasing_0_N_left.2" depart="196.00" departLane="N_in_1" departPos="108.70" departSpeed="7.40" departDelay="0.88" arrival="241.00" arrivalLane="E_out_1" arrivalPos="189.60" arrivalSpeed="12.21" duration="45.00" routeLength="289.85" waitingTime="7.00" waitingCount="1" stopTime="0.00" timeLoss="19.89" rerouteNo="0" devices="vehroute_flow_2_increasing_0_N_left.2 tripinfo_flow_2_increasing_0_N_left.2" vType="container" speedFactor="0.90" vaporized=""/>
    <tripinfo id="flow_9_increasing_0_E_straight.4" depart="154.00" departLane="E_in_1" departPos="23.57" departSpeed="9.43" departDelay="0.16" arrival="245.00" arrivalLane="W_out_1" arrivalPos="189.60" arrivalSpeed="13.07" duration="91.00" routeLength="376.43" waitingTime="44.00" waitingCount="2" stopTime="0.00" timeLoss="61.81" rerouteNo="0" devices="vehroute_flow_9_increasing_0_E_straight.4 tripinfo_flow_9_increasing_0_E_straight.4" vType="bus" speedFactor="0.95" vaporized=""/>
    <tripinfo id="flow_13_increasing_0_W_straight.4" depart="162.00" departLane="W_in_0" departPos="8.08" departSpeed="5.80" departDelay="0.38" arrival="245.00" arrivalLane="E_out_0" arrivalPos="189.60" arrivalSpeed="11.32" duration="83.00" routeLength="391.92" waitingTime="38.00" waitingCount="1" stopTime="0.00" timeLoss="50.56" rerouteNo="0" devices="vehroute_flow_13_increasing_0_W_straight.4 tripinfo_flow_13_increasing_0_W_straight.4" vType="truck" speedFactor="0.87" vaporized=""/>
    <tripinfo id="flow_9_increasing_0_E_straight.3" depart="116.00" departLane="E_in_1" departPos="108.76" departSpeed="10.34" departDelay="0.62" arrival="246.00" arrivalLane="W_out_0" arrivalPos="189.60" arrivalSpeed="11.15" duration="130.00" routeLength="291.24" waitingTime="84.00" waitingCount="4" stopTime="0.00" timeLoss="104.60" rerouteNo="0" devices="vehroute_flow_9_increasing_0_E_straight.3 tripinfo_flow_9_increasing_0_E_straight.3" vType="truck" speedFactor="0.85" vaporized=""/>
    <tripinfo id="flow_1_increasing_0_N_straight.5" depart="210.00" departLane="N_in_1" departPos="39.34" departSpeed="5.11" departDelay="0.58" arrival="246.00" arrivalLane="S_out_0" arrivalPos="189.60" arrivalSpeed="15.31" duration="36.00" routeLength="360.66" waitingTime="0.00" waitingCount="0" stopTime="0.00" timeLoss="11.85" rerouteNo="0" devices="vehroute_flow_1_increasing_0_N_straight.5 tripinfo_flow_1_increasing_0_N_straight.5" vType="moto" speedFactor="1.10" vaporized=""/>
    <tripinfo id="flow_8_increasing_0_S_uturn.1" depart="211.00" departLane="S_in_0" departPos="61.32" departSpeed="5.57" departDelay="0.47" arrival="252.00" arrivalLane="S_out_1" arrivalPos="189.60" arrivalSpeed="11.90" duration="41.00" routeLength="322.55" waitingTime="6.00" waitingCount="1" stopTime="0.00" timeLoss="13.46" rerouteNo="0" devices="vehroute_flow_8_increasing_0_S_uturn.1 tripinfo_flow_8_increasing_0_S_uturn.1" vType="car" speedFactor="0.90" vaporized=""/>
    <tripinfo id="flow_5_increasing_0_S_straight.6" depart="239.00" departLane="S_in_1" departPos="109.89" departSpeed="2.41" departDelay="0.20" arrival="262.00" arrivalLane="N_out_1" arrivalPos="189.60" arrivalSpeed="14.59" duration="23.00" routeLength="290.11" waitingTime="0.00" waitingCount="0" stopTime="0.00" timeLoss="3.23" rerouteNo="0" devices="vehroute_flow_5_increasing_0_S_straight.6 tripinfo_flow_5_increasing_0_S_straight.6" vType="moto" speedFactor="1.10" vaporized=""/>
    <tripinfo id="flow_1_increasing_0_N_straight.6" depart="252.00" departLane="N_in_0" departPos="43.18" departSpeed="3.06" departDelay="0.70" arrival="282.00" arrivalLane="S_out_0" arrivalPos="189.60" arrivalSpeed="13.01" duration="30.00" routeLength="356.82" waitingTime="0.00" waitingCount="0" stopTime="0.00" timeLoss="3.27" rerouteNo="0" devices="vehroute_flow_1_increasing_0_N_straight.6 tripinfo_flow_1_increasing_0_N_straight.6" vType="moto" speedFactor="0.98" vaporized=""/>
    <tripinfo id="flow_9_increasing_0_E_straight.5" depart="193.00" departLane="E_in_0" departPos="81.69" departSpeed="9.19" departDelay="0.70" arrival="286.00" arrivalLane="W_out_0" arrivalPos="189.60" arrivalSpeed="13.30" duration="93.00" routeLength="318.31" waitingTime="57.00" waitingCount="2" stopTime="0.00" timeLoss="69.13" rerouteNo="0" devices="vehroute_flow_9_increasing_0_E_straight.5 tripinfo_flow_9_increasing_0_E_straight.5" vType="moto" speedFactor="1.00" vaporized=""/>
    <tripinfo id="flow_15_increasing_0_W_right.2" depart="197.00" departLane="W_in_0" departPos="104.14" departSpeed="12.50" departDelay="0.92" arrival="286.00" arrivalLane="S_out_0" arrivalPos="189.60" arrivalSpeed="12.95" duration="89.00" routeLength="284.09" waitingTime="55.00" waitingCount="2" stopTime="0.00" timeLoss="66.46" rerouteNo="0" devices="vehroute_flow_15_increasing_0_W_right.2 tripinfo_flow_15_increasing_0_W_right.2" vType="moto" speedFactor="0.95" vaporized=""/>
    <tripinfo id="flow_12_increasing_0_E_uturn.1" depart="198.00" departLane="E_in_1" departPos="168.21" departSpeed="5.94" departDelay="0.96" arrival="287.00" arrivalLane="E_out_1" arrivalPos="189.60" arrivalSpeed="11.06" duration="89.00" routeLength="215.66" waitingTime="58.00" waitingCount="2" stopTime="0.00" timeLoss="70.00" rerouteNo="0" devices="vehroute_flow_12_increasing_0_E_uturn.1 tripinfo_flow_12_increasing_0_E_uturn.1" vType="moto" speedFactor="0.89" vaporized=""/>
    <tripinfo id="flow_14_increasing_0_W_left.2" depart="200.00" departLane="W_in_1" departPos="174.17" departSpeed="0.01" departDelay="1.00" arrival="290.00" arrivalLane="N_out_1" arrivalPos="189.60" arrivalSpeed="12.83" duration="90.00" routeLength="224.38" waitingTime="61.00" waitingCount="3" stopTime="0.00" timeLoss="71.32" rerouteNo="0" devices="vehroute_flow_14_increasing_0_W_left.2 tripinfo_flow_14_increasing_0_W_left.2" vType="car" speedFactor="0.93" vaporized=""/>
    <tripinfo id="flow_5_increasing_0_S_straight.7" depart="279.00" departLane="S_in_1" departPos="88.32" departSpeed="10.69" departDelay="0.40" arrival="305.00" arrivalLane="N_out_0" arrivalPos="189.60" arrivalSpeed="11.79" duration="26.00" routeLength="311.68" waitingTime="0.00" waitingCount="0" stopTime="0.00" timeLoss="0.90" rerouteNo="0" devices="vehroute_flow_5_increasing_0_S_straight.7 tripinfo_flow_5_increasing_0_S_straight.7" vType="truck" speedFactor="0.90" vaporized=""/>
    <tripinfo id="flow_2_increasing_0_N_left.3" depart="293.00" departLane="N_in_1" departPos="107.80" departSpeed="13.56" departDelay="0.32" arrival="316.00" arrivalLane="E_out_1" arrivalPos="189.60" arrivalSpeed="14.20" duration="23.00" routeLength="290.75" waitingTime="0.00" waitingCount="0" stopTime="0.00" timeLoss="2.72" rerouteNo="0" devices="vehroute_flow_2_increasing_0_N_left.3 tripinfo_flow_2_increasing_0_N_left.3" vType="moto" speedFactor="1.06" vaporized=""/>
    <tripinfo id="flow_19_increasing_300_N_right.0" depart="300.00" departLane="N_in_0" departPos="178.62" departSpeed="8.73" departDelay="0.00" arrival="316.00" arrivalLane="W_out_0" arrivalPos="189.60" arrivalSpeed="15.48" duration="16.00" routeLength="209.61" waitingTime="0.00" waitingCount="0" stopTime="0.00" timeLoss="2.13" rerouteNo="0" devices="vehroute_flow_19_increasing_300_N_right.0 tripinfo_flow_19_increasing_300_N_right.0" vType="moto" speedFactor="1.30" vaporized=""/>
    <tripinfo id="flow_6_increasing_0_S_left.3" depart="299.00" departLane="S_in_0" departPos="150.32" departSpeed="6.88" departDelay="0.49" arrival="320.00" arrivalLane="W_out_1" arrivalPos="189.60" arrivalSpeed="15.14" duration="21.00" routeLength="248.23" waitingTime="0.00" waitingCount="0" stopTime="0.00" timeLoss="4.03" rerouteNo="0" devices="vehroute_flow_6_increasing_0_S_left.3 tripinfo_flow_6_increasing_0_S_left.3" vType="moto" speedFactor="1.17" vaporized=""/>
    <tripinfo id="flow_23_increasing_300_S_right.0" depart="300.00" departLane="S_in_1" departPos="177.75" departSpeed="8.18" departDelay="0.00" arrival="320.00" arrivalLane="E_out_0" arrivalPos="189.60" arrivalSpeed="12.67" duration="20.00" routeLength="210.48" waitingTime="0.00" waitingCount="0" stopTime="0.00" timeLoss="3.24" rerouteNo="0" devices="vehroute_flow_23_increasing_300_S_right.0 tripinfo_flow_23_increasing_300_S_right.0" vType="moto" speedFactor="0.96" vaporized=""/>