<?xml version="1.0" encoding="UTF-8"?>

<!-- generated on 2025-12-20 04:44:21 by Eclipse SUMO GUI Version 1.24.0
<sumoConfiguration xmlns:xsi="http://www.w3.org/2001/XMLSchema-instance" xsi:noNamespaceSchemaLocation="http://sumo.dlr.de/xsd/sumoConfiguration.xsd">

    <input>
        <net-file value="nets/demo\net.net.xml"/>
        <route-files value="nets/demo\route_temp_18560_2019682969328_85056024.rou.xml"/>
    </input>

    <output>
        <summary-output value="result_test/m\summary_ep_1.xml"/>
        <tripinfo-output value="result_test/m\tripinfo_ep_1.xml"/>
        <vehroute-output value="result_test/m\vehroute_ep_1.xml"/>
    </output>

    <time>
        <begin value="0"/>
    </time>

    <report>
        <verbose value="true"/>
        <no-warnings value="true"/>
        <no-step-log value="true"/>
    </report>

    <traci_server>
        <remote-port value="62123"/>
    </traci_server>

    <gui_only>
        <gui-settings-file value="nets/demo\gui-settings.xml"/>
        <quit-on-end value="true"/>
        <start value="true"/>
        <delay value="150"/>
    </gui_only>

</sumoConfiguration>
-->

<tripinfos xmlns:xsi="http://www.w3.org/2001/XMLSchema-instance" xsi:noNamespaceSchemaLocation="http://sumo.dlr.de/xsd/tripinfo_file.xsd">
    <tripinfo id="flow_flatten_r_S_to_E.0" depart="0.00" departLane="S_in_0" departPos="168.29" departSpeed="12.04" departDelay="0.00" arrival="19.00" arrivalLane="E_out_0" arrivalPos="189.60" arrivalSpeed="13.80" duration="19.00" routeLength="219.94" waitingTime="0.00" waitingCount="0" stopTime="0.00" timeLoss="2.80" rerouteNo="0" devices="vehroute_flow_flatten_r_S_to_E.0 tripinfo_flow_flatten_r_S_to_E.0" vType="moto" speedFactor="1.05" vaporized=""/>
    <tripinfo id="flow_flatten_r_N_to_N.0" depart="0.00" departLane="N_in_1" departPos="166.01" departSpeed="0.96" departDelay="0.00" arrival="21.00" arrivalLane="N_out_1" arrivalPos="189.60" arrivalSpeed="15.54" duration="21.00" routeLength="217.86" waitingTime="0.00" waitingCount="0" stopTime="0.00" timeLoss="5.82" rerouteNo="0" devices="vehroute_flow_flatten_r_N_to_N.0 tripinfo_flow_flatten_r_N_to_N.0" vType="moto" speedFactor="1.15" vaporized=""/>
    <tripinfo id="flow_flatten_r_S_to_S.0" depart="0.00" departLane="S_in_1" departPos="144.95" departSpeed="4.26" departDelay="0.00" arrival="26.00" arrivalLane="S_out_1" arrivalPos="189.60" arrivalSpeed="13.67" duration="26.00" routeLength="238.92" waitingTime="0.00" waitingCount="0" stopTime="0.00" timeLoss="7.31" rerouteNo="0" devices="vehroute_flow_flatten_r_S_to_S.0 tripinfo_flow_flatten_r_S_to_S.0" vType="truck" speedFactor="1.02" vaporized=""/>
    <tripinfo id="flow_flatten_r_S_to_N.1" depart="11.00" departLane="S_in_1" departPos="182.00" departSpeed="14.96" departDelay="0.40" arrival="26.00" arrivalLane="N_out_1" arrivalPos="189.60" arrivalSpeed="15.92" duration="15.00" routeLength="218.00" waitingTime="0.00" waitingCount="0" stopTime="0.00" timeLoss="0.49" rerouteNo="0" devices="vehroute_flow_flatten_r_S_to_N.1 tripinfo_flow_flatten_r_S_to_N.1" vType="moto" speedFactor="1.16" vaporized=""/>
    <tripinfo id="flow_flatten_r_N_to_E.0" depart="0.00" departLane="N_in_1" departPos="107.37" departSpeed="5.80" departDelay="0.00" arrival="27.00" arrivalLane="E_out_1" arrivalPos="189.60" arrivalSpeed="12.65" duration="27.00" routeLength="291.18" waitingTime="0.00" waitingCount="0" stopTime="0.00" timeLoss="2.74" rerouteNo="0" devices="vehroute_flow_flatten_r_N_to_E.0 tripinfo_flow_flatten_r_N_to_E.0" vType="car" speedFactor="0.92" vaporized=""/>
    <tripinfo id="flow_flatten_r_S_to_N.0" depart="0.00" departLane="S_in_0" departPos="44.88" departSpeed="6.80" departDelay="0.00" arrival="31.00" arrivalLane="N_out_0" arrivalPos="189.60" arrivalSpeed="12.39" duration="31.00" routeLength="355.12" waitingTime="0.00" waitingCount="0" stopTime="0.00" timeLoss="2.07" rerouteNo="0" devices="vehroute_flow_flatten_r_S_to_N.0 tripinfo_flow_flatten_r_S_to_N.0" vType="truck" speedFactor="0.90" vaporized=""/>
    <tripinfo id="flow_flatten_r_N_to_W.0" depart="0.00" departLane="N_in_0" departPos="120.11" departSpeed="3.62" departDelay="0.00" arrival="33.00" arrivalLane="W_out_0" arrivalPos="189.60" arrivalSpeed="11.48" duration="33.00" routeLength="268.12" waitingTime="0.00" waitingCount="0" stopTime="0.00" timeLoss="9.13" rerouteNo="0" devices="vehroute_flow_flatten_r_N_to_W.0 tripinfo_flow_flatten_r_N_to_W.0" vType="container" speedFactor="0.85" vaporized=""/>
    <tripinfo id="flow_flatten_r_S_to_W.0" depart="0.00" departLane="S_in_0" departPos="5.65" departSpeed="12.67" departDelay="0.00" arrival="33.00" arrivalLane="W_out_1" arrivalPos="189.60" arrivalSpeed="12.68" duration="33.00" routeLength="392.90" waitingTime="0.00" waitingCount="0" stopTime="0.00" timeLoss="2.47" rerouteNo="0" devices="vehroute_flow_flatten_r_S_to_W.0 tripinfo_flow_flatten_r_S_to_W.0" vType="bus" speedFactor="0.96" vaporized=""/>
    <tripinfo id="flow_flatten_r_W_to_S.0" depart="0.00" departLane="W_in_0" departPos="108.38" departSpeed="3.13" departDelay="0.00" arrival="36.00" arrivalLane="S_out_0" arrivalPos="189.60" arrivalSpeed="13.99" duration="36.00" routeLength="279.85" waitingTime="7.00" waitingCount="1" stopTime="0.00" timeLoss="15.10" rerouteNo="0" devices="vehroute_flow_flatten_r_W_to_S.0 tripinfo_flow_flatten_r_W_to_S.0" vType="moto" speedFactor="1.01" vaporized=""/>
    <tripinfo id="flow_flatten_r_W_to_E.0" depart="0.00" departLane="W_in_0" departPos="24.53" departSpeed="4.77" departDelay="0.00" arrival="38.00" arrivalLane="E_out_0" arrivalPos="189.60" arrivalSpeed="13.10" duration="38.00" routeLength="375.47" waitingTime="3.00" waitingCount="1" stopTime="0.00" timeLoss="11.27" rerouteNo="0" devices="vehroute_flow_flatten_r_W_to_E.0 tripinfo_flow_flatten_r_W_to_E.0" vType="moto" speedFactor="1.03" vaporized=""/>
    <tripinfo id="flow_flatten_r_E_to_W.0" depart="0.00" departLane="E_in_1" departPos="127.60" departSpeed="0.09" departDelay="0.00" arrival="39.00" arrivalLane="W_out_0" arrivalPos="189.60" arrivalSpeed="13.91" duration="39.00" routeLength="272.40" waitingTime="4.00" waitingCount="1" stopTime="0.00" timeLoss="19.80" rerouteNo="0" devices="vehroute_flow_flatten_r_E_to_W.0 tripinfo_flow_flatten_r_E_to_W.0" vType="truck" speedFactor="1.02" vaporized=""/>
    <tripinfo id="flow_flatten_r_W_to_E.1" depart="16.00" departLane="W_in_0" departPos="34.76" departSpeed="15.28" departDelay="0.80" arrival="40.00" arrivalLane="E_out_0" arrivalPos="189.60" arrivalSpeed="15.54" duration="24.00" routeLength="365.24" waitingTime="0.00" waitingCount="0" stopTime="0.00" timeLoss="0.85" rerouteNo="0" devices="vehroute_flow_flatten_r_W_to_E.1 tripinfo_flow_flatten_r_W_to_E.1" vType="moto" speedFactor="1.19" vaporized=""/>
    <tripinfo id="flow_flatten_r_E_to_N.0" depart="0.00" departLane="E_in_1" departPos="8.27" departSpeed="7.69" departDelay="0.00" arrival="41.00" arrivalLane="N_out_0" arrivalPos="189.60" arrivalSpeed="13.01" duration="41.00" routeLength="379.96" waitingTime="2.00" waitingCount="1" stopTime="0.00" timeLoss="10.03" rerouteNo="0" devices="vehroute_flow_flatten_r_E_to_N.0 tripinfo_flow_flatten_r_E_to_N.0" vType="car" speedFactor="0.94" vaporized=""/>
    <tripinfo id="flow_flatten_r_E_to_E.0" depart="0.00" departLane="E_in_0" departPos="8.62" departSpeed="10.83" departDelay="0.00" arrival="45.00" arrivalLane="E_out_1" arrivalPos="189.60" arrivalSpeed="14.36" duration="45.00" routeLength="375.25" waitingTime="6.00" waitingCount="2" stopTime="0.00" timeLoss="19.11" rerouteNo="0" devices="vehroute_flow_flatten_r_E_to_E.0 tripinfo_flow_flatten_r_E_to_E.0" vType="moto" speedFactor="1.09" vaporized=""/>
    <tripinfo id="flow_flatten_r_E_to_S.0" depart="0.00" departLane="E_in_0" departPos="103.38" departSpeed="3.51" departDelay="0.00" arrival="46.00" arrivalLane="S_out_1" arrivalPos="189.60" arrivalSpeed="14.00" duration="46.00" routeLength="295.17" waitingTime="10.00" waitingCount="2" stopTime="0.00" timeLoss="23.63" rerouteNo="0" devices="vehroute_flow_flatten_r_E_to_S.0 tripinfo_flow_flatten_r_E_to_S.0" vType="moto" speedFactor="1.02" vaporized=""/>
    <tripinfo id="flow_flatten_r_S_to_N.2" depart="22.00" departLane="S_in_1" departPos="175.97" departSpeed="7.55" departDelay="0.80" arrival="49.00" arrivalLane="N_out_0" arrivalPos="189.60" arrivalSpeed="12.87" duration="27.00" routeLength="224.03" waitingTime="4.00" waitingCount="1" stopTime="0.00" timeLoss="10.21" rerouteNo="0" devices="vehroute_flow_flatten_r_S_to_N.2 tripinfo_flow_flatten_r_S_to_N.2" vType="moto" speedFactor="0.99" vaporized=""/>
    <tripinfo id="flow_flatten_r_N_to_S.1" depart="11.00" departLane="N_in_0" departPos="113.04" departSpeed="10.33" departDelay="0.17" arrival="52.00" arrivalLane="S_out_1" arrivalPos="189.60" arrivalSpeed="13.41" duration="41.00" routeLength="286.96" waitingTime="11.00" waitingCount="1" stopTime="0.00" timeLoss="20.74" rerouteNo="0" devices="vehroute_flow_flatten_r_N_to_S.1 tripinfo_flow_flatten_r_N_to_S.1" vType="moto" speedFactor="1.04" vaporized=""/>
    <tripinfo id="flow_flatten_r_N_to_W.1" depart="28.00" departLane="N_in_1" departPos="66.71" departSpeed="11.27" departDelay="0.62" arrival="53.00" arrivalLane="W_out_0" arrivalPos="189.60" arrivalSpeed="14.82" duration="25.00" routeLength="321.52" waitingTime="0.00" waitingCount="0" stopTime="0.00" timeLoss="3.34" rerouteNo="0" devices="vehroute_flow_flatten_r_N_to_W.1 tripinfo_flow_flatten_r_N_to_W.1" vType="moto" speedFactor="1.12" vaporized=""/>
    <tripinfo id="flow_flatten_r_W_to_N.0" depart="0.00" departLane="W_in_1" departPos="182.88" departSpeed="4.61" departDelay="0.00" arrival="54.00" arrivalLane="N_out_0" arrivalPos="189.60" arrivalSpeed="11.16" duration="54.00" routeLength="215.67" waitingTime="18.00" waitingCount="2" stopTime="0.00" timeLoss="33.88" rerouteNo="0" devices="vehroute_flow_flatten_r_W_to_N.0 tripinfo_flow_flatten_r_W_to_N.0" vType="container" speedFactor="0.82" vaporized=""/>
    <tripinfo id="flow_flatten_r_N_to_S.3" depart="33.00" departLane="N_in_1" departPos="185.21" departSpeed="3.20" departDelay="0.52" arrival="54.00" arrivalLane="S_out_1" arrivalPos="189.60" arrivalSpeed="13.31" duration="21.00" routeLength="214.79" waitingTime="0.00" waitingCount="0" stopTime="0.00" timeLoss="5.44" rerouteNo="0" devices="vehroute_flow_flatten_r_N_to_S.3 tripinfo_flow_flatten_r_N_to_S.3" vType="moto" speedFactor="1.05" vaporized=""/>
    <tripinfo id="flow_flatten_r_N_to_S.0" depart="0.00" departLane="N_in_0" departPos="8.76" departSpeed="8.37" departDelay="0.00" arrival="55.00" arrivalLane="S_out_0" arrivalPos="189.60" arrivalSpeed="11.86" duration="55.00" routeLength="391.24" waitingTime="12.00" waitingCount="1" stopTime="0.00" timeLoss="22.21" rerouteNo="0" devices="vehroute_flow_flatten_r_N_to_S.0 tripinfo_flow_flatten_r_N_to_S.0" vType="moto" speedFactor="0.88" vaporized=""/>
    <tripinfo id="flow_flatten_r_S_to_N.3" depart="32.00" departLane="S_in_1" departPos="110.92" departSpeed="12.38" departDelay="0.21" arrival="55.00" arrivalLane="N_out_1" arrivalPos="189.60" arrivalSpeed="13.80" duration="23.00" routeLength="289.08" waitingTime="0.00" waitingCount="0" stopTime="0.00" timeLoss="3.43" rerouteNo="0" devices="vehroute_flow_flatten_r_S_to_N.3 tripinfo_flow_flatten_r_S_to_N.3" vType="moto" speedFactor="1.08" vaporized=""/>
    <tripinfo id="flow_flatten_r_N_to_S.2" depart="22.00" departLane="N_in_0" departPos="5.28" departSpeed="2.37" departDelay="0.35" arrival="56.00" arrivalLane="S_out_0" arrivalPos="189.60" arrivalSpeed="14.68" duration="34.00" routeLength="394.72" waitingTime="0.00" waitingCount="0" stopTime="0.00" timeLoss="8.29" rerouteNo="0" devices="vehroute_flow_flatten_r_N_to_S.2 tripinfo_flow_flatten_r_N_to_S.2" vType="car" speedFactor="1.12" vaporized=""/>
    <tripinfo id="flow_flatten_r_S_to_E.1" depart="27.00" departLane="S_in_1" departPos="107.53" departSpeed="1.15" departDelay="0.97" arrival="57.00" arrivalLane="E_out_0" arrivalPos="189.60" arrivalSpeed="13.10" duration="30.00" routeLength="280.70" waitingTime="0.00" waitingCount="0" stopTime="0.00" timeLoss="8.49" rerouteNo="0" devices="vehroute_flow_flatten_r_S_to_E.1 tripinfo_flow_flatten_r_S_to_E.1" vType="bus" speedFactor="0.97" vaporized=""/>
    <tripinfo id="flow_flatten_r_N_to_E.1" depart="27.00" departLane="N_in_1" departPos="59.51" departSpeed="2.39" departDelay="0.82" arrival="58.00" arrivalLane="E_out_1" arrivalPos="189.60" arrivalSpeed="13.15" duration="31.00" routeLength="339.04" waitingTime="0.00" waitingCount="0" stopTime="0.00" timeLoss="4.14" rerouteNo="0" devices="vehroute_flow_flatten_r_N_to_E.1 tripinfo_flow_flatten_r_N_to_E.1" vType="moto" speedFactor="0.96" vaporized=""/>
    <tripinfo id="flow_flatten_r_W_to_E.2" depart="31.00" departLane="W_in_0" departPos="73.90" departSpeed="8.86" departDelay="0.61" arrival="62.00" arrivalLane="E_out_0" arrivalPos="189.60" arrivalSpeed="13.38" duration="31.00" routeLength="326.10" waitingTime="0.00" waitingCount="0" stopTime="0.00" timeLoss="7.48" rerouteNo="0" devices="vehroute_flow_flatten_r_W_to_E.2 tripinfo_flow_flatten_r_W_to_E.2" vType="moto" speedFactor="1.04" vaporized=""/>
    <tripinfo id="flow_flatten_r_E_to_W.1" depart="15.00" departLane="E_in_1" departPos="109.98" departSpeed="5.98" departDelay="0.38" arrival="64.00" arrivalLane="W_out_0" arrivalPos="189.60" arrivalSpeed="11.64" duration="49.00" routeLength="290.02" waitingTime="17.00" waitingCount="1" stopTime="0.00" timeLoss="24.58" rerouteNo="0" devices="vehroute_flow_flatten_r_E_to_W.1 tripinfo_flow_flatten_r_E_to_W.1" vType="moto" speedFactor="0.87" vaporized=""/>
    <tripinfo id="flow_flatten_r_W_to_S.1" depart="38.00" departLane="W_in_1" departPos="175.36" departSpeed="7.42" departDelay="0.71" arrival="65.00" arrivalLane="S_out_0" arrivalPos="189.60" arrivalSpeed="12.11" duration="27.00" routeLength="212.87" waitingTime="3.00" waitingCount="1" stopTime="0.00" timeLoss="8.33" rerouteNo="0" devices="vehroute_flow_flatten_r_W_to_S.1 tripinfo_flow_flatten_r_W_to_S.1" vType="moto" speedFactor="0.88" vaporized=""/>
    <tripinfo id="flow_flatten_r_E_to_W.2" depart="30.00" departLane="E_in_1" departPos="128.68" departSpeed="2.32" departDelay="0.76" arrival="73.00" arrivalLane="W_out_0" arrivalPos="189.60" arrivalSpeed="10.72" duration="43.00" routeLength="271.32" waitingTime="1.00" waitingCount="1" stopTime="0.00" timeLoss="17.63" rerouteNo="0" devices="vehroute_flow_flatten_r_E_to_W.2 tripinfo_flow_flatten_r_E_to_W.2" vType="container" speedFactor="0.78" vaporized=""/>
    <tripinfo id="flow_flatten_r_W_to_W.0" depart="0.00" departLane="W_in_0" departPos="16.88" departSpeed="4.76" departDelay="0.00" arrival="74.00" arrivalLane="W_out_1" arrivalPos="189.60" arrivalSpeed="11.00" duration="74.00" routeLength="366.99" waitingTime="23.00" waitingCount="4" stopTime="0.00" timeLoss="40.99" rerouteNo="0" devices="vehroute_flow_flatten_r_W_to_W.0 tripinfo_flow_flatten_r_W_to_W.0" vType="moto" speedFactor="0.85" vaporized=""/>
    <tripinfo id="flow_flatten_r_N_to_S.4" depart="44.00" departLane="N_in_0" departPos="148.08" departSpeed="9.64" departDelay="0.69" arrival="74.00" arrivalLane="S_out_0" arrivalPos="189.60" arrivalSpeed="14.36" duration="30.00" routeLength="251.92" waitingTime="7.00" waitingCount="1" stopTime="0.00" timeLoss="12.68" rerouteNo="0" devices="vehroute_flow_flatten_r_N_to_S.4 tripinfo_flow_flatten_r_N_to_S.4" vType="car" speedFactor="1.05" vaporized=""/>
    <tripinfo id="flow_flatten_r_E_to_S.1" depart="39.00" departLane="E_in_0" departPos="134.76" departSpeed="5.40" departDelay="0.97" arrival="75.00" arrivalLane="S_out_1" arrivalPos="189.60" arrivalSpeed="12.28" duration="36.00" routeLength="263.79" waitingTime="0.00" waitingCount="0" stopTime="0.00" timeLoss="13.79" rerouteNo="0" devices="vehroute_flow_flatten_r_E_to_S.1 tripinfo_flow_flatten_r_E_to_S.1" vType="container" speedFactor="0.91" vaporized=""/>
    <tripinfo id="flow_flatten_r_S_to_E.2" depart="53.00" departLane="S_in_0" departPos="185.47" departSpeed="3.56" departDelay="0.94" arrival="79.00" arrivalLane="E_out_0" arrivalPos="189.60" arrivalSpeed="12.46" duration="26.00" routeLength="202.76" waitingTime="2.00" waitingCount="1" stopTime="0.00" timeLoss="9.45" rerouteNo="0" devices="vehroute_flow_flatten_r_S_to_E.2 tripinfo_flow_flatten_r_S_to_E.2" vType="truck" speedFactor="0.92" vaporized=""/>
    <tripinfo id="flow_flatten_r_S_to_W.1" depart="27.00" departLane="S_in_0" departPos="8.88" departSpeed="2.33" departDelay="0.20" arrival="80.00" arrivalLane="W_out_1" arrivalPos="189.60" arrivalSpeed="11.61" duration="53.00" routeLength="389.67" waitingTime="12.00" waitingCount="2" stopTime="0.00" timeLoss="22.00" rerouteNo="0" devices="vehroute_flow_flatten_r_S_to_W.1 tripinfo_flow_flatten_r_S_to_W.1" vType="moto" speedFactor="0.93" vaporized=""/>
    <tripinfo id="flow_flatten_r_S_to_N.4" depart="43.00" departLane="S_in_1" departPos="77.94" departSpeed="4.43" departDelay="0.61" arrival="80.00" arrivalLane="N_out_0" arrivalPos="189.60" arrivalSpeed="14.28" duration="37.00" routeLength="322.06" waitingTime="4.00" waitingCount="2" stopTime="0.00" timeLoss="15.14" rerouteNo="0" devices="vehroute_flow_flatten_r_S_to_N.4 tripinfo_flow_flatten_r_S_to_N.4" vType="moto" speedFactor="1.08" vaporized=""/>
    <tripinfo id="flow_flatten_r_N_to_W.2" depart="55.00" departLane="N_in_0" departPos="121.56" departSpeed="11.19" departDelay="0.23" arrival="80.00" arrivalLane="W_out_0" arrivalPos="189.60" arrivalSpeed="12.96" duration="25.00" routeLength="266.67" waitingTime="0.00" waitingCount="0" stopTime="0.00" timeLoss="3.86" rerouteNo="0" devices="vehroute_flow_flatten_r_N_to_W.2 tripinfo_flow_flatten_r_N_to_W.2" vType="truck" speedFactor="0.94" vaporized=""/>
    <tripinfo id="flow_flatten_r_S_to_N.5" depart="53.00" departLane="S_in_1" departPos="171.48" departSpeed="2.19" departDelay="0.01" arrival="82.00" arrivalLane="N_out_1" arrivalPos="189.60" arrivalSpeed="13.89" duration="29.00" routeLength="228.52" waitingTime="0.00" waitingCount="0" stopTime="0.00" timeLoss="12.31" rerouteNo="0" devices="vehroute_flow_flatten_r_S_to_N.5 tripinfo_flow_flatten_r_S_to_N.5" vType="moto" speedFactor="1.03" vaporized=""/>
    <tripinfo id="flow_flatten_r_S_to_S.1" depart="53.00" departLane="S_in_0" departPos="81.69" departSpeed="9.19" departDelay="0.20" arrival="84.00" arrivalLane="S_out_1" arrivalPos="189.60" arrivalSpeed="12.77" duration="31.00" routeLength="302.18" waitingTime="0.00" waitingCount="0" stopTime="0.00" timeLoss="7.66" rerouteNo="0" devices="vehroute_flow_flatten_r_S_to_S.1 tripinfo_flow_flatten_r_S_to_S.1" vType="moto" speedFactor="1.00" vaporized=""/>
    <tripinfo id="flow_flatten_r_W_to_E.3" depart="46.00" departLane="W_in_1" departPos="23.57" departSpeed="9.43" departDelay="0.41" arrival="93.00" arrivalLane="E_out_0" arrivalPos="189.60" arrivalSpeed="12.78" duration="47.00" routeLength="376.43" waitingTime="4.00" waitingCount="1" stopTime="0.00" timeLoss="18.45" rerouteNo="0" devices="vehroute_flow_flatten_r_W_to_E.3 tripinfo_flow_flatten_r_W_to_E.3" vType="bus" speedFactor="0.95" vaporized=""/>
    <tripinfo id="flow_flatten_r_E_to_N.1" depart="37.00" departLane="E_in_0" departPos="19.85" departSpeed="3.23" departDelay="0.11" arrival="94.00" arrivalLane="N_out_0" arrivalPos="189.60" arrivalSpeed="10.47" duration="57.00" routeLength="368.38" waitingTime="12.00" waitingCount="1" stopTime="0.00" timeLoss="20.84" rerouteNo="0" devices="vehroute_flow_flatten_r_E_to_N.1 tripinfo_flow_flatten_r_E_to_N.1" vType="truck" speedFactor="0.77" vaporized=""/>
    <tripinfo id="flow_flatten_r_E_to_W.3" depart="44.00" departLane="E_in_0" departPos="19.25" departSpeed="11.19" departDelay="0.14" arrival="95.00" arrivalLane="W_out_0" arrivalPos="189.60" arrivalSpeed="15.39" duration="51.00" routeLength="380.75" waitingTime="10.00" waitingCount="1" stopTime="0.00" timeLoss="26.29" rerouteNo="0" devices="vehroute_flow_flatten_r_E_to_W.3 tripinfo_flow_flatten_r_E_to_W.3" vType="moto" speedFactor="1.20" vaporized=""/>
    <tripinfo id="flow_flatten_r_N_to_E.2" depart="53.00" departLane="N_in_0" departPos="167.23" departSpeed="1.90" departDelay="0.64" arrival="95.00" arrivalLane="E_out_1" arrivalPos="189.60" arrivalSpeed="12.97" duration="42.00" routeLength="231.32" waitingTime="7.00" waitingCount="1" stopTime="0.00" timeLoss="23.77" rerouteNo="0" devices="vehroute_flow_flatten_r_N_to_E.2 tripinfo_flow_flatten_r_N_to_E.2" vType="container" speedFactor="0.97" vaporized=""/>
    <tripinfo id="flow_flatten_r_E_to_W.4" depart="59.00" departLane="E_in_0" departPos="104.14" departSpeed="12.50" departDelay="0.52" arrival="98.00" arrivalLane="W_out_0" arrivalPos="189.60" arrivalSpeed="11.96" duration="39.00" routeLength="295.86" waitingTime="1.00" waitingCount="1" stopTime="0.00" timeLoss="16.16" rerouteNo="0" devices="vehroute_flow_flatten_r_E_to_W.4 tripinfo_flow_flatten_r_E_to_W.4" vType="moto" speedFactor="0.95" vaporized=""/>
    <tripinfo id="flow_flatten_r_W_to_E.4" depart="61.00" departLane="W_in_1" departPos="168.21" departSpeed="5.94" departDelay="0.22" arrival="98.00" arrivalLane="E_out_0" arrivalPos="189.60" arrivalSpeed="12.10" duration="37.00" routeLength="231.79" waitingTime="7.00" waitingCount="2" stopTime="0.00" timeLoss="17.34" rerouteNo="0" devices="vehroute_flow_flatten_r_W_to_E.4 tripinfo_flow_flatten_r_W_to_E.4" vType="moto" speedFactor="0.89" vaporized=""/>
    <tripinfo id="flow_flatten_r_S_to_N.6" depart="64.00" departLane="S_in_0" departPos="31.76" departSpeed="11.77" departDelay="0.41" arrival="102.00" arrivalLane="N_out_0" arrivalPos="189.60" arrivalSpeed="12.49" duration="38.00" routeLength="368.24" waitingTime="2.00" waitingCount="1" stopTime="0.00" timeLoss="9.35" rerouteNo="0" devices="vehroute_flow_flatten_r_S_to_N.6 tripinfo_flow_flatten_r_S_to_N.6" vType="moto" speedFactor="0.94" vaporized=""/>
    <tripinfo id="flow_flatten_r_N_to_S.5" depart="55.00" departLane="N_in_1" departPos="108.70" departSpeed="9.05" departDelay="0.87" arrival="104.00" arrivalLane="S_out_0" arrivalPos="189.60" arrivalSpeed="15.24" duration="49.00" routeLength="291.30" waitingTime="15.00" waitingCount="2" stopTime="0.00" timeLoss="29.75" rerouteNo="0" devices="vehroute_flow_flatten_r_N_to_S.5 tripinfo_flow_flatten_r_N_to_S.5" vType="emergency" speedFactor="1.10" vaporized=""/>
    <tripinfo id="flow_flatten_r_W_to_N.1" depart="40.00" departLane="W_in_1" departPos="108.76" departSpeed="10.34" departDelay="0.87" arrival="107.00" arrivalLane="N_out_1" arrivalPos="189.60" arrivalSpeed="11.35" duration="67.00" routeLength="289.79" waitingTime="23.00" waitingCount="3" stopTime="0.00" timeLoss="41.21" rerouteNo="0" devices="vehroute_flow_flatten_r_W_to_N.1 tripinfo_flow_flatten_r_W_to_N.1" vType="bus" speedFactor="0.85" vaporized=""/>
    <tripinfo id="flow_flatten_r_S_to_N.7" depart="75.00" departLane="S_in_1" departPos="74.60" departSpeed="11.83" departDelay="0.81" arrival="107.00" arrivalLane="N_out_0" arrivalPos="189.60" arrivalSpeed="13.25" duration="32.00" routeLength="325.40" waitingTime="0.00" waitingCount="0" stopTime="0.00" timeLoss="8.98" rerouteNo="0" devices="vehroute_flow_flatten_r_S_to_N.7 tripinfo_flow_flatten_r_S_to_N.7" vType="moto" speedFactor="1.04" vaporized=""/>
    <tripinfo id="flow_flatten_r_N_to_S.6" depart="65.00" departLane="N_in_1" departPos="89.17" departSpeed="11.39" departDelay="0.04" arrival="108.00" arrivalLane="S_out_0" arrivalPos="189.60" arrivalSpeed="13.08" duration="43.00" routeLength="310.83" waitingTime="4.00" waitingCount="1" stopTime="0.00" timeLoss="20.38" rerouteNo="0" devices="vehroute_flow_flatten_r_N_to_S.6 tripinfo_flow_flatten_r_N_to_S.6" vType="moto" speedFactor="1.03" vaporized=""/>
    <tripinfo id="flow_flatten_r_N_to_S.7" depart="76.00" departLane="N_in_1" departPos="159.96" departSpeed="7.11" departDelay="0.21" arrival="108.00" arrivalLane="S_out_1" arrivalPos="189.60" arrivalSpeed="14.85" duration="32.00" routeLength="240.04" waitingTime="2.00" waitingCount="1" stopTime="0.00" timeLoss="15.89" rerouteNo="0" devices="vehroute_flow_flatten_r_N_to_S.7 tripinfo_flow_flatten_r_N_to_S.7" vType="moto" speedFactor="1.10" vaporized=""/>
    <tripinfo id="flow_flatten_r_S_to_W.2" depart="54.00" departLane="S_in_0" departPos="71.94" departSpeed="4.41" departDelay="0.40" arrival="111.00" arrivalLane="W_out_1" arrivalPos="189.60" arrivalSpeed="15.80" duration="57.00" routeLength="326.61" waitingTime="21.00" waitingCount="2" stopTime="0.00" timeLoss="35.55" rerouteNo="0" devices="vehroute_flow_flatten_r_S_to_W.2 tripinfo_flow_flatten_r_S_to_W.2" vType="moto" speedFactor="1.14" vaporized=""/>
    <tripinfo id="flow_flatten_r_W_to_S.2" depart="75.00" departLane="W_in_1" departPos="177.50" departSpeed="1.05" departDelay="0.43" arrival="115.00" arrivalLane="S_out_0" arrivalPos="189.60" arrivalSpeed="12.28" duration="40.00" routeLength="210.73" waitingTime="13.00" waitingCount="1" stopTime="0.00" timeLoss="22.24" rerouteNo="0" devices="vehroute_flow_flatten_r_W_to_S.2 tripinfo_flow_flatten_r_W_to_S.2" vType="moto" speedFactor="0.90" vaporized=""/>
    <tripinfo id="flow_flatten_r_N_to_N.1" depart="53.00" departLane="N_in_0" departPos="8.08" departSpeed="5.80" departDelay="0.09" arrival="116.00" arrivalLane="N_out_1" arrivalPos="189.60" arrivalSpeed="12.05" duration="63.00" routeLength="375.79" waitingTime="12.00" waitingCount="2" stopTime="0.00" timeLoss="30.08" rerouteNo="0" devices="vehroute_flow_flatten_r_N_to_N.1 tripinfo_flow_flatten_r_N_to_N.1" vType="bus" speedFactor="0.87" vaporized=""/>
    <tripinfo id="flow_flatten_r_E_to_N.2" depart="74.00" departLane="E_in_1" departPos="124.88" departSpeed="0.01" departDelay="0.22" arrival="117.00" arrivalLane="N_out_0" arrivalPos="189.60" arrivalSpeed="11.64" duration="43.00" routeLength="263.35" waitingTime="8.00" waitingCount="1" stopTime="0.00" timeLoss="21.07" rerouteNo="0" devices="vehroute_flow_flatten_r_E_to_N.2 tripinfo_flow_flatten_r_E_to_N.2" vType="truck" speedFactor="0.89" vaporized=""/>
    <tripinfo id="flow_flatten_r_W_to_E.6" depart="92.00" departLane="W_in_0" departPos="140.51" departSpeed="9.25" departDelay="0.82" arrival="118.00" arrivalLane="E_out_0" arrivalPos="189.60" arrivalSpeed="11.56" duration="26.00" routeLength="259.49" waitingTime="0.00" waitingCount="0" stopTime="0.00" timeLoss="4.53" rerouteNo="0" devices="vehroute_flow_flatten_r_W_to_E.6 tripinfo_flow_flatten_r_W_to_E.6" vType="moto" speedFactor="0.89" vaporized=""/>
    <tripinfo id="flow_flatten_r_W_to_W.1" depart="76.00" departLane="W_in_1" departPos="137.11" departSpeed="4.59" departDelay="0.83" arrival="120.00" arrivalLane="W_out_1" arrivalPos="189.60" arrivalSpeed="13.10" duration="44.00" routeLength="246.76" waitingTime="14.00" waitingCount="3" stopTime="0.00" timeLoss="25.14" rerouteNo="0" devices="vehroute_flow_flatten_r_W_to_W.1 tripinfo_flow_flatten_r_W_to_W.1" vType="moto" speedFactor="1.02" vaporized=""/>
    <tripinfo id="flow_flatten_r_E_to_W.6" depart="88.00" departLane="E_in_0" departPos="107.99" departSpeed="0.98" departDelay="0.28" arrival="121.00" arrivalLane="W_out_0" arrivalPos="189.60" arrivalSpeed="10.82" duration="33.00" routeLength="292.01" waitingTime="0.00" waitingCount="0" stopTime="0.00" timeLoss="7.07" rerouteNo="0" devices="vehroute_flow_flatten_r_E_to_W.6 tripinfo_flow_flatten_r_E_to_W.6" vType="moto" speedFactor="0.83" vaporized=""/>
    <tripinfo id="flow_flatten_r_W_to_E.5" depart="76.00" departLane="W_in_1" departPos="29.07" departSpeed="2.59" departDelay="0.02" arrival="122.00" arrivalLane="E_out_0" arrivalPos="189.60" arrivalSpeed="12.39" duration="46.00" routeLength="370.93" waitingTime="6.00" waitingCount="2" stopTime="0.00" timeLoss="15.89" rerouteNo="0" devices="vehroute_flow_flatten_r_W_to_E.5 tripinfo_flow_flatten_r_W_to_E.5" vType="car" speedFactor="0.90" vaporized=""/>
    <tripinfo id="flow_flatten_r_W_to_N.2" depart="79.00" departLane="W_in_1" departPos="37.04" departSpeed="3.19" departDelay="0.73" arrival="122.00" arrivalLane="N_out_1" arrivalPos="189.60" arrivalSpeed="13.38" duration="43.00" routeLength="361.51" waitingTime="4.00" waitingCount="2" stopTime="0.00" timeLoss="16.38" rerouteNo="0" devices="vehroute_flow_flatten_r_W_to_N.2 tripinfo_flow_flatten_r_W_to_N.2" vType="moto" speedFactor="1.01" vaporized=""/>
    <tripinfo id="flow_flatten_r_E_to_E.1" depart="75.00" departLane="E_in_1" departPos="21.68" departSpeed="6.53" departDelay="0.28" arrival="123.00" arrivalLane="E_out_1" arrivalPos="189.60" arrivalSpeed="14.58" duration="48.00" routeLength="362.19" waitingTime="8.00" waitingCount="2" stopTime="0.00" timeLoss="23.87" rerouteNo="0" devices="vehroute_flow_flatten_r_E_to_E.1 tripinfo_flow_flatten_r_E_to_E.1" vType="moto" speedFactor="1.14" vaporized=""/>
    <tripinfo id="flow_flatten_r_E_to_S.2" depart="77.00" departLane="E_in_1" departPos="152.01" departSpeed="5.60" departDelay="0.93" arrival="123.00" arrivalLane="S_out_1" arrivalPos="189.60" arrivalSpeed="15.17" duration="46.00" routeLength="246.54" waitingTime="17.00" waitingCount="2" stopTime="0.00" timeLoss="29.02" rerouteNo="0" devices="vehroute_flow_flatten_r_E_to_S.2 tripinfo_flow_flatten_r_E_to_S.2" vType="moto" speedFactor="1.10" vaporized=""/>
    <tripinfo id="flow_flatten_r_E_to_W.5" depart="74.00" departLane="E_in_1" departPos="92.22" departSpeed="0.17" departDelay="0.90" arrival="125.00" arrivalLane="W_out_0" arrivalPos="189.60" arrivalSpeed="14.37" duration="51.00" routeLength="307.78" waitingTime="14.00" waitingCount="3" stopTime="0.00" timeLoss="30.05" rerouteNo="0" devices="vehroute_flow_flatten_r_E_to_W.5 tripinfo_flow_flatten_r_E_to_W.5" vType="moto" speedFactor="1.07" vaporized=""/>