<?xml version="1.0" encoding="UTF-8"?>

<!-- generated on 2025-12-20 04:44:21 by Eclipse SUMO GUI Version 1.24.0
<sumoConfiguration xmlns:xsi="http://www.w3.org/2001/XMLSchema-instance" xsi:noNamespaceSchemaLocation="http://sumo.dlr.de/xsd/sumoConfiguration.xsd">

    <input>
        <net-file value="nets/demo\net.net.xml"/>
        <route-files value="nets/demo\route_temp_18560_2019682969328_85056024.rou.xml"/>
    </input>

    <output>
        <summary-output value="result_test/m\summary_ep_1.xml"/>
        <tripinfo-output value="result_test/m\tripinfo_ep_1.xml"/>
        <vehroute-output value="result_test/m\vehroute_ep_1.xml"/>
    </output>

    <time>
        <begin value="0"/>
    </time>

    <report>
        <verbose value="true"/>
        <no-warnings value="true"/>
        <no-step-log value="true"/>
    </report>

    <traci_server>
        <remote-port value="62123"/>
    </traci_server>

    <gui_only>
        <gui-settings-file value="nets/demo\gui-settings.xml"/>
        <quit-on-end value="true"/>
        <start value="true"/>
        <delay value="150"/>
    </gui_only>

</sumoConfiguration>
-->

<routes xmlns:xsi="http://www.w3.org/2001/XMLSchema-instance" xsi:noNamespaceSchemaLocation="http://sumo.dlr.de/xsd/routes_file.xsd">
    <vehicle id="flow_flatten_r_S_to_E.0" type="moto" depart="0.00" departLane="0" departPos="168.2937" departSpeed="12.0365" speedFactor="1.0505" arrival="19.00">
        <route edges="S_in E_out"/>
    </vehicle>

    <vehicle id="flow_flatten_r_N_to_N.0" type="moto" depart="0.00" departLane="1" departPos="166.0107" departSpeed="0.9611" speedFactor="1.1475" arrival="21.00">
        <route edges="N_in N_out"/>
    </vehicle>

    <vehicle id="flow_flatten_r_S_to_S.0" type="truck" depart="0.00" departLane="1" departPos="144.9496" departSpeed="4.262" speedFactor="1.0161" arrival="26.00">
        <route edges="S_in S_out"/>
    </vehicle>

    <vehicle id="flow_flatten_r_S_to_N.1" type="moto" depart="11.00" departLane="1" departPos="182.0047" departSpeed="14.9608" speedFactor="1.1582" arrival="26.00">
        <route edges="S_in N_out"/>
    </vehicle>

    <vehicle id="flow_flatten_r_N_to_E.0" type="car" depart="0.00" departLane="1" departPos="107.3659" departSpeed="5.7992" speedFactor="0.9228" arrival="27.00">
        <route edges="N_in E_out"/>
    </vehicle>

    <vehicle id="flow_flatten_r_S_to_N.0" type="truck" depart="0.00" departLane="0" departPos="44.8816" departSpeed="6.8018" speedFactor="0.8990" arrival="31.00">
        <route edges="S_in N_out"/>
    </vehicle>

    <vehicle id="flow_flatten_r_N_to_W.0" type="container" depart="0.00" departLane="0" departPos="120.1072" departSpeed="3.6228" speedFactor="0.8488" arrival="33.00">
        <route edges="N_in W_out"/>
    </vehicle>

    <vehicle id="flow_flatten_r_S_to_W.0" type="bus" depart="0.00" departLane="0" departPos="5.6544" departSpeed="12.666" speedFactor="0.9581" arrival="33.00">
        <route edges="S_in W_out"/>
    </vehicle>

    <vehicle id="flow_flatten_r_W_to_S.0" type="moto" depart="0.00" departLane="0" departPos="108.377" departSpeed="3.1328" speedFactor="1.0101" arrival="36.00">
        <route edges="W_in S_out"/>
    </vehicle>

    <vehicle id="flow_flatten_r_W_to_E.0" type="moto" depart="0.00" departLane="0" departPos="24.5296" departSpeed="4.7654" speedFactor="1.0348" arrival="38.00">
        <route edges="W_in E_out"/>
    </vehicle>

    <vehicle id="flow_flatten_r_E_to_W.0" type="truck" depart="0.00" departLane="1" departPos="127.6015" departSpeed="0.0858" speedFactor="1.0225" arrival="39.00">
        <route edges="E_in W_out"/>
    </vehicle>

    <vehicle id="flow_flatten_r_W_to_E.1" type="moto" depart="16.00" departLane="0" departPos="34.7646" departSpeed="15.2785" speedFactor="1.1853" arrival="40.00">
        <route edges="W_in E_out"/>
    </vehicle>

    <vehicle id="flow_flatten_r_E_to_N.0" type="car" depart="0.00" departLane="1" departPos="8.2688" departSpeed="7.6911" speedFactor="0.9379" arrival="41.00">
        <route edges="E_in N_out"/>
    </vehicle>

    <vehicle id="flow_flatten_r_E_to_E.0" type="moto" depart="0.00" departLane="0" departPos="8.6229" departSpeed="10.8267" speedFactor="1.0932" arrival="45.00">
        <route edges="E_in E_out"/>
    </vehicle>

    <vehicle id="flow_flatten_r_E_to_S.0" type="moto" depart="0.00" departLane="0" departPos="103.3842" departSpeed="3.5108" speedFactor="1.0205" arrival="46.00">
        <route edges="E_in S_out"/>
    </vehicle>

    <vehicle id="flow_flatten_r_S_to_N.2" type="moto" depart="22.00" departLane="1" departPos="175.9691" departSpeed="7.553" speedFactor="0.9938" arrival="49.00">
        <route edges="S_in N_out"/>
    </vehicle>

    <vehicle id="flow_flatten_r_N_to_S.1" type="moto" depart="11.00" departLane="0" departPos="113.0446" departSpeed="10.3272" speedFactor="1.0383" arrival="52.00">
        <route edges="N_in S_out"/>
    </vehicle>

    <vehicle id="flow_flatten_r_N_to_W.1" type="moto" depart="28.00" departLane="1" departPos="66.71" departSpeed="11.2663" speedFactor="1.1228" arrival="53.00">
        <route edges="N_in W_out"/>
    </vehicle>

    <vehicle id="flow_flatten_r_W_to_N.0" type="container" depart="0.00" departLane="1" departPos="182.8773" departSpeed="4.6108" speedFactor="0.8227" arrival="54.00">
        <route edges="W_in N_out"/>
    </vehicle>

    <vehicle id="flow_flatten_r_N_to_S.3" type="moto" depart="33.00" departLane="1" departPos="185.2056" departSpeed="3.2036" speedFactor="1.0453" arrival="54.00">
        <route edges="N_in S_out"/>
    </vehicle>

    <vehicle id="flow_flatten_r_N_to_S.0" type="moto" depart="0.00" departLane="0" departPos="8.759" departSpeed="8.3676" speedFactor="0.8806" arrival="55.00">
        <route edges="N_in S_out"/>
    </vehicle>

    <vehicle id="flow_flatten_r_S_to_N.3" type="moto" depart="32.00" departLane="1" departPos="110.9191" departSpeed="12.3791" speedFactor="1.0788" arrival="55.00">
        <route edges="S_in N_out"/>
    </vehicle>

    <vehicle id="flow_flatten_r_N_to_S.2" type="car" depart="22.00" departLane="0" departPos="5.2781" departSpeed="2.3675" speedFactor="1.1218" arrival="56.00">
        <route edges="N_in S_out"/>
    </vehicle>

    <vehicle id="flow_flatten_r_S_to_E.1" type="bus" depart="27.00" departLane="1" departPos="107.5311" departSpeed="1.1546" speedFactor="0.9657" arrival="57.00">
        <route edges="S_in E_out"/>
    </vehicle>

    <vehicle id="flow_flatten_r_N_to_E.1" type="moto" depart="27.00" departLane="1" departPos="59.5081" departSpeed="2.394" speedFactor="0.9623" arrival="58.00">
        <route edges="N_in E_out"/>
    </vehicle>

    <vehicle id="flow_flatten_r_W_to_E.2" type="moto" depart="31.00" departLane="0" departPos="73.8966" departSpeed="8.8622" speedFactor="1.0365" arrival="62.00">
        <route edges="W_in E_out"/>
    </vehicle>

    <vehicle id="flow_flatten_r_E_to_W.1" type="moto" depart="15.00" departLane="1" departPos="109.9809" departSpeed="5.9752" speedFactor="0.8727" arrival="64.00">
        <route edges="E_in W_out"/>
    </vehicle>

    <vehicle id="flow_flatten_r_W_to_S.1" type="moto" depart="38.00" departLane="1" departPos="175.3621" departSpeed="7.4177" speedFactor="0.8806" arrival="65.00">
        <route edges="W_in S_out"/>
    </vehicle>

    <vehicle id="flow_flatten_r_E_to_W.2" type="container" depart="30.00" departLane="1" departPos="128.6773" departSpeed="2.3158" speedFactor="0.7845" arrival="73.00">
        <route edges="E_in W_out"/>
    </vehicle>

    <vehicle id="flow_flatten_r_W_to_W.0" type="moto" depart="0.00" departLane="0" departPos="16.8786" departSpeed="4.7577" speedFactor="0.8472" arrival="74.00">
        <route edges="W_in W_out"/>
    </vehicle>

    <vehicle id="flow_flatten_r_N_to_S.4" type="car" depart="44.00" departLane="0" departPos="148.0778" departSpeed="9.6399" speedFactor="1.0479" arrival="74.00">
        <route edges="N_in S_out"/>
    </vehicle>

    <vehicle id="flow_flatten_r_E_to_S.1" type="container" depart="39.00" departLane="0" departPos="134.7579" departSpeed="5.4043" speedFactor="0.9146" arrival="75.00">
        <route edges="E_in S_out"/>
    </vehicle>

    <vehicle id="flow_flatten_r_S_to_E.2" type="truck" depart="53.00" departLane="0" departPos="185.4693" departSpeed="3.5649" speedFactor="0.9194" arrival="79.00">
        <route edges="S_in E_out"/>
    </vehicle>

    <vehicle id="flow_flatten_r_S_to_W.1" type="moto" depart="27.00" departLane="0" departPos="8.8817" departSpeed="2.3302" speedFactor="0.9279" arrival="80.00">
        <route edges="S_in W_out"/>
    </vehicle>

    <vehicle id="flow_flatten_r_S_to_N.4" type="moto" depart="43.00" departLane="1" departPos="77.9408" departSpeed="4.4335" speedFactor="1.0764" arrival="80.00">
        <route edges="S_in N_out"/>
    </vehicle>

    <vehicle id="flow_flatten_r_N_to_W.2" type="truck" depart="55.00" departLane="0" departPos="121.5569" departSpeed="11.1871" speedFactor="0.9396" arrival="80.00">
        <route edges="N_in W_out"/>
    </vehicle>

    <vehicle id="flow_flatten_r_S_to_N.5" type="moto" depart="53.00" departLane="1" departPos="171.4793" departSpeed="2.1949" speedFactor="1.0283" arrival="82.00">
        <route edges="S_in N_out"/>
    </vehicle>

    <vehicle id="flow_flatten_r_S_to_S.1" type="moto" depart="53.00" departLane="0" departPos="81.6907" departSpeed="9.1867" speedFactor="0.9964" arrival="84.00">
        <route edges="S_in S_out"/>
    </vehicle>

    <vehicle id="flow_flatten_r_W_to_E.3" type="bus" depart="46.00" departLane="1" departPos="23.5668" departSpeed="9.4296" speedFactor="0.9525" arrival="93.00">
        <route edges="W_in E_out"/>
    </vehicle>

    <vehicle id="flow_flatten_r_E_to_N.1" type="truck" depart="37.00" departLane="0" departPos="19.8546" departSpeed="3.2255" speedFactor="0.7665" arrival="94.00">
        <route edges="E_in N_out"/>
    </vehicle>

    <vehicle id="flow_flatten_r_E_to_W.3" type="moto" depart="44.00" departLane="0" departPos="19.2493" departSpeed="11.1917" speedFactor="1.2027" arrival="95.00">
        <route edges="E_in W_out"/>
    </vehicle>

    <vehicle id="flow_flatten_r_N_to_E.2" type="container" depart="53.00" departLane="0" departPos="167.2268" departSpeed="1.9044" speedFactor="0.9706" arrival="95.00">
        <route edges="N_in E_out"/>
    </vehicle>

    <vehicle id="flow_flatten_r_E_to_W.4" type="moto" depart="59.00" departLane="0" departPos="104.1356" departSpeed="12.4982" speedFactor="0.9517" arrival="98.00">
        <route edges="E_in W_out"/>
    </vehicle>

    <vehicle id="flow_flatten_r_W_to_E.4" type="moto" depart="61.00" departLane="1" departPos="168.2148" departSpeed="5.9412" speedFactor="0.8882" arrival="98.00">
        <route edges="W_in E_out"/>
    </vehicle>

    <vehicle id="flow_flatten_r_S_to_N.6" type="moto" depart="64.00" departLane="0" departPos="31.7588" departSpeed="11.7707" speedFactor="0.9374" arrival="102.00">
        <route edges="S_in N_out"/>
    </vehicle>

    <vehicle id="flow_flatten_r_N_to_S.5" type="emergency" depart="55.00" departLane="1" departPos="108.7048" departSpeed="9.0531" speedFactor="1.0989" arrival="104.00">
        <route edges="N_in S_out"/>
    </vehicle>

    <vehicle id="flow_flatten_r_W_to_N.1" type="bus" depart="40.00" departLane="1" departPos="108.7646" departSpeed="10.3425" speedFactor="0.8515" arrival="107.00">
        <route edges="W_in N_out"/>
    </vehicle>

    <vehicle id="flow_flatten_r_S_to_N.7" type="moto" depart="75.00" departLane="1" departPos="74.602" departSpeed="11.8331" speedFactor="1.0390" arrival="107.00">
        <route edges="S_in N_out"/>
    </vehicle>

    <vehicle id="flow_flatten_r_N_to_S.6" type="moto" depart="65.00" departLane="1" departPos="89.1662" departSpeed="11.3855" speedFactor="1.0265" arrival="108.00">
        <route edges="N_in S_out"/>
    </vehicle>

    <vehicle id="flow_flatten_r_N_to_S.7" type="moto" depart="76.00" departLane="1" departPos="159.9604" departSpeed="7.1052" speedFactor="1.1043" arrival="108.00">
        <route edges="N_in S_out"/>
    </vehicle>

    <vehicle id="flow_flatten_r_S_to_W.2" type="moto" depart="54.00" departLane="0" departPos="71.9448" departSpeed="4.4062" speedFactor="1.1432" arrival="111.00">
        <route edges="S_in W_out"/>
    </vehicle>

    <vehicle id="flow_flatten_r_W_to_S.2" type="moto" depart="75.00" departLane="1" departPos="177.4982" departSpeed="1.0518" speedFactor="0.9020" arrival="115.00">
        <route edges="W_in S_out"/>
    </vehicle>

    <vehicle id="flow_flatten_r_N_to_N.1" type="bus" depart="53.00" departLane="0" departPos="8.0759" departSpeed="5.7989" speedFactor="0.8691" arrival="116.00">
        <route edges="N_in N_out"/>
    </vehicle>

    <vehicle id="flow_flatten_r_E_to_N.2" type="truck" depart="74.00" departLane="1" departPos="124.8757" departSpeed="0.0106" speedFactor="0.8923" arrival="117.00">
        <route edges="E_in N_out"/>
    </vehicle>

    <vehicle id="flow_flatten_r_W_to_E.6" type="moto" depart="92.00" departLane="0" departPos="140.508" departSpeed="9.25" speedFactor="0.8878" arrival="118.00">
        <route edges="W_in E_out"/>
    </vehicle>

    <vehicle id="flow_flatten_r_W_to_W.1" type="moto" depart="76.00" departLane="1" departPos="137.1078" departSpeed="4.5869" speedFactor="1.0203" arrival="120.00">
        <route edges="W_in W_out"/>
    </vehicle>

    <vehicle id="flow_flatten_r_E_to_W.6" type="moto" depart="88.00" departLane="0" departPos="107.9927" departSpeed="0.9794" speedFactor="0.8330" arrival="121.00">
        <route edges="E_in W_out"/>
    </vehicle>

    <vehicle id="flow_flatten_r_W_to_E.5" type="car" depart="76.00" departLane="1" departPos="29.0743" departSpeed="2.5887" speedFactor="0.8975" arrival="122.00">
        <route edges="W_in E_out"/>
    </vehicle>

    <vehicle id="flow_flatten_r_W_to_N.2" type="moto" depart="79.00" departLane="1" departPos="37.0366" departSpeed="3.1926" speedFactor="1.0085" arrival="122.00">
        <route edges="W_in N_out"/>
    </vehicle>

    <vehicle id="flow_flatten_r_E_to_E.1" type="moto" depart="75.00" departLane="1" departPos="21.6793" departSpeed="6.5338" speedFactor="1.1413" arrival="123.00">
        <route edges="E_in E_out"/>
    </vehicle>

    <vehicle id="flow_flatten_r_E_to_S.2" type="moto" depart="77.00" departLane="1" departPos="152.0111" departSpeed="5.5953" speedFactor="1.0983" arrival="123.00">
        <route edges="E_in S_out"/>
    </vehicle>

    <vehicle id="flow_flatten_r_E_to_W.5" type="moto" depart="74.00" departLane="1" departPos="92.2234" departSpeed="0.173" speedFactor="1.0668" arrival="125.00">
        <route edges="E_in W_out"/>
    </vehicle>

    <vehicle id="flow_flatten_r_S_to_E.3" type="car" depart="79.00" departLane="0" departPos="18.5245" departSpeed="1.5615" speedFactor="0.9797" arrival="127.00">
        <route edges="S_in E_out"/>
    </vehicle>

    <vehicle id="flow_flatten_r_N_to_S.8" type="moto" depart="87.00" departLane="1" departPos="150.3544" departSpeed="8.4424" speedFactor="1.0682" arrival="128.00">
        <route edges="N_in S_out"/>
    </vehicle>

    <vehicle id="flow_flatten_r_S_to_N.8" type="moto" depart="85.00" departLane="1" departPos="41.8299" departSpeed="11.3987" speedFactor="1.0626" arrival="129.00">
        <route edges="S_in N_out"/>
    </vehicle>

    <vehicle id="flow_flatten_r_S_to_N.9" type="moto" depart="96.00" departLane="1" departPos="86.4019" departSpeed="1.9109" speedFactor="1.1705" arrival="130.00">
        <route edges="S_in N_out"/>
    </vehicle>

    <vehicle id="flow_flatten_r_N_to_W.3" type="moto" depart="83.00" departLane="0" departPos="36.1232" departSpeed="5.1819" speedFactor="0.8003" arrival="134.00">
        <route edges="N_in W_out"/>
    </vehicle>

    <vehicle id="flow_flatten_r_N_to_E.3" type="car" depart="79.00" departLane="0" departPos="24.5526" departSpeed="7.8618" speedFactor="0.9759" arrival="137.00">
        <route edges="N_in E_out"/>
    </vehicle>

    <vehicle id="flow_flatten_r_S_to_W.3" type="bus" depart="81.00" departLane="1" departPos="47.4954" departSpeed="4.0315" speedFactor="0.9040" arrival="141.00">
        <route edges="S_in W_out"/>
    </vehicle>

    <vehicle id="flow_flatten_r_W_to_S.3" type="moto" depart="112.00" departLane="1" departPos="53.9882" departSpeed="5.318" speedFactor="1.1157" arrival="141.00">
        <route edges="W_in S_out"/>
    </vehicle>

    <vehicle id="flow_flatten_r_W_to_E.7" type="moto" depart="107.00" departLane="1" departPos="84.7431" departSpeed="3.5745" speedFactor="0.9730" arrival="142.00">
        <route edges="W_in E_out"/>
    </vehicle>

    <vehicle id="flow_flatten_r_E_to_N.3" type="truck" depart="111.00" departLane="0" departPos="174.1059" departSpeed="0.4235" speedFactor="0.9670" arrival="143.00">
        <route edges="E_in N_out"/>
    </vehicle>

    <vehicle id="flow_flatten_r_E_to_W.7" type="truck" depart="103.00" departLane="1" departPos="140.1205" departSpeed="11.738" speedFactor="1.0651" arrival="144.00">
        <route edges="E_in W_out"/>
    </vehicle>

    <vehicle id="flow_flatten_r_E_to_S.3" type="moto" depart="115.00" departLane="1" departPos="103.2677" departSpeed="10.6582" speedFactor="0.9645" arrival="145.00">
        <route edges="E_in S_out"/>
    </vehicle>

    <vehicle id="flow_flatten_r_E_to_W.8" type="container" depart="117.00" departLane="1" departPos="90.2975" departSpeed="7.097" speedFactor="1.0240" arrival="148.00">
        <route edges="E_in W_out"/>
    </vehicle>

    <vehicle id="flow_flatten_r_S_to_N.10" type="emergency" depart="106.00" departLane="1" departPos="42.0768" departSpeed="14.3132" speedFactor="1.1380" arrival="151.00">
        <route edges="S_in N_out"/>
    </vehicle>

    <vehicle id="flow_flatten_r_W_to_N.3" type="moto" depart="118.00" departLane="1" departPos="168.3233" departSpeed="4.6963" speedFactor="0.9897" arrival="153.00">
        <route edges="W_in N_out"/>
    </vehicle>

    <vehicle id="flow_flatten_r_N_to_S.9" type="car" depart="98.00" departLane="1" departPos="16.1283" departSpeed="8.9746" speedFactor="1.0972" arrival="154.00">
        <route edges="N_in S_out"/>
    </vehicle>

    <vehicle id="flow_flatten_r_N_to_S.10" type="moto" depart="109.00" departLane="1" departPos="69.3051" departSpeed="14.9998" speedFactor="1.2976" arrival="155.00">
        <route edges="N_in S_out"/>
    </vehicle>

    <vehicle id="flow_flatten_r_S_to_N.11" type="moto" depart="117.00" departLane="1" departPos="90.8186" departSpeed="12.7439" speedFactor="1.1571" arrival="155.00">
        <route edges="S_in N_out"/>
    </vehicle>

    <vehicle id="flow_flatten_r_S_to_E.4" type="moto" depart="105.00" departLane="1" departPos="2.2093" departSpeed="6.8921" speedFactor="0.9385" arrival="156.00">
        <route edges="S_in E_out"/>
    </vehicle>

    <vehicle id="flow_flatten_r_N_to_N.2" type="moto" depart="106.00" departLane="1" departPos="103.4641" departSpeed="3.4813" speedFactor="1.0873" arrival="157.00">
        <route edges="N_in N_out"/>
    </vehicle>

    <vehicle id="flow_flatten_r_S_to_E.5" type="moto" depart="131.00" departLane="1" departPos="75.2144" departSpeed="6.7639" speedFactor="1.0387" arrival="158.00">
        <route edges="S_in E_out"/>
    </vehicle>

    <vehicle id="flow_flatten_r_N_to_W.4" type="moto" depart="110.00" departLane="1" departPos="9.2851" departSpeed="2.4692" speedFactor="0.8391" arrival="161.00">
        <route edges="N_in W_out"/>
    </vehicle>

    <vehicle id="flow_flatten_r_S_to_N.13" type="bus" depart="138.00" departLane="0" departPos="149.7816" departSpeed="3.7314" speedFactor="0.8196" arrival="164.00">
        <route edges="S_in N_out"/>
    </vehicle>

    <vehicle id="flow_flatten_r_N_to_E.4" type="moto" depart="105.00" departLane="1" departPos="74.7856" departSpeed="2.548" speedFactor="0.9618" arrival="166.00">
        <route edges="N_in E_out"/>
    </vehicle>

    <vehicle id="flow_flatten_r_E_to_W.9" type="moto" depart="132.00" departLane="1" departPos="159.8742" departSpeed="7.3882" speedFactor="1.0039" arrival="167.00">
        <route edges="E_in W_out"/>
    </vehicle>

    <vehicle id="flow_flatten_r_S_to_W.4" type="truck" depart="108.00" departLane="0" departPos="157.0309" departSpeed="7.5499" speedFactor="1.0019" arrival="169.00">
        <route edges="S_in W_out"/>
    </vehicle>

    <vehicle id="flow_flatten_r_W_to_E.9" type="moto" depart="137.00" departLane="0" departPos="131.4461" departSpeed="13.0096" speedFactor="1.0387" arrival="169.00">
        <route edges="W_in E_out"/>
    </vehicle>

    <vehicle id="flow_flatten_r_W_to_E.8" type="bus" depart="122.00" departLane="0" departPos="45.7887" departSpeed="8.1991" speedFactor="0.9032" arrival="174.00">
        <route edges="W_in E_out"/>
    </vehicle>

    <vehicle id="flow_flatten_r_N_to_S.12" type="moto" depart="130.00" departLane="0" departPos="140.1793" departSpeed="13.1019" speedFactor="1.0281" arrival="174.00">
        <route edges="N_in S_out"/>
    </vehicle>

    <vehicle id="flow_flatten_r_W_to_W.2" type="moto" depart="151.00" departLane="0" departPos="169.1917" departSpeed="11.1313" speedFactor="1.1365" arrival="174.00">
        <route edges="W_in W_out"/>
    </vehicle>

    <vehicle id="flow_flatten_r_E_to_W.10" type="bus" depart="147.00" departLane="0" departPos="60.9644" departSpeed="12.1133" speedFactor="0.9784" arrival="176.00">
        <route edges="E_in W_out"/>
    </vehicle>

    <vehicle id="flow_flatten_r_S_to_N.12" type="car" depart="128.00" departLane="0" departPos="124.2821" departSpeed="12.8223" speedFactor="1.0323" arrival="179.00">
        <route edges="S_in N_out"/>
    </vehicle>

    <vehicle id="flow_flatten_r_S_to_N.15" type="moto" depart="159.00" departLane="1" departPos="161.9597" departSpeed="5.4155" speedFactor="1.0856" arrival="181.00">
        <route edges="S_in N_out"/>
    </vehicle>

    <vehicle id="flow_flatten_r_N_to_S.11" type="bus" depart="120.00" departLane="1" departPos="40.9491" departSpeed="1.9885" speedFactor="0.9315" arrival="184.00">
        <route edges="N_in S_out"/>
    </vehicle>

    <vehicle id="flow_flatten_r_N_to_W.5" type="bus" depart="137.00" departLane="0" departPos="77.131" departSpeed="7.2663" speedFactor="1.0325" arrival="185.00">
        <route edges="N_in W_out"/>
    </vehicle>

    <vehicle id="flow_flatten_r_S_to_S.2" type="moto" depart="106.00" departLane="0" departPos="35.6434" departSpeed="3.3434" speedFactor="1.0413" arrival="188.00">
        <route edges="S_in S_out"/>
    </vehicle>

    <vehicle id="flow_flatten_r_S_to_N.14" type="truck" depart="149.00" departLane="1" departPos="162.1669" departSpeed="8.3344" speedFactor="0.9137" arrival="191.00">
        <route edges="S_in N_out"/>
    </vehicle>

    <vehicle id="flow_flatten_r_E_to_N.4" type="moto" depart="148.00" departLane="1" departPos="66.1547" departSpeed="12.0137" speedFactor="1.0140" arrival="193.00">
        <route edges="E_in N_out"/>
    </vehicle>

    <vehicle id="flow_flatten_r_N_to_E.5" type="car" depart="131.00" departLane="0" departPos="5.0473" departSpeed="4.3921" speedFactor="0.8850" arrival="195.00">
        <route edges="N_in E_out"/>
    </vehicle>

    <vehicle id="flow_flatten_r_W_to_S.4" type="moto" depart="150.00" departLane="1" departPos="102.4537" departSpeed="0.641" speedFactor="1.0699" arrival="195.00">
        <route edges="W_in S_out"/>
    </vehicle>

    <vehicle id="flow_flatten_r_W_to_E.10" type="truck" depart="152.00" departLane="0" departPos="128.7404" departSpeed="3.8256" speedFactor="1.0532" arrival="196.00">
        <route edges="W_in E_out"/>
    </vehicle>

    <vehicle id="flow_flatten_r_W_to_N.4" type="car" depart="157.00" departLane="1" departPos="38.4375" departSpeed="1.1026" speedFactor="0.9653" arrival="196.00">
        <route edges="W_in N_out"/>
    </vehicle>

    <vehicle id="flow_flatten_r_E_to_W.11" type="moto" depart="161.00" departLane="0" departPos="184.0677" departSpeed="0.8915" speedFactor="1.2148" arrival="199.00">
        <route edges="E_in W_out"/>
    </vehicle>

    <vehicle id="flow_flatten_r_E_to_S.4" type="moto" depart="153.00" departLane="0" departPos="28.3376" departSpeed="13.053" speedFactor="1.2552" arrival="201.00">
        <route edges="E_in S_out"/>
    </vehicle>

    <vehicle id="flow_flatten_r_W_to_E.11" type="moto" depart="168.00" departLane="0" departPos="27.7577" departSpeed="10.036" speedFactor="0.8543" arrival="202.00">
        <route edges="W_in E_out"/>
    </vehicle>

    <vehicle id="flow_flatten_r_E_to_W.12" type="car" depart="176.00" departLane="0" departPos="184.144" departSpeed="0.6264" speedFactor="0.9718" arrival="202.00">
        <route edges="E_in W_out"/>
    </vehicle>

    <vehicle id="flow_flatten_r_E_to_E.2" type="moto" depart="150.00" departLane="1" departPos="11.9624" departSpeed="0.7938" speedFactor="1.0047" arrival="203.00">
        <route edges="E_in E_out"/>
    </vehicle>

    <vehicle id="flow_flatten_r_N_to_S.13" type="moto" depart="141.00" departLane="1" departPos="81.1005" departSpeed="0.2383" speedFactor="1.0448" arrival="205.00">
        <route edges="N_in S_out"/>
    </vehicle>

    <vehicle id="flow_flatten_r_S_to_E.6" type="car" depart="157.00" departLane="1" departPos="21.3277" departSpeed="6.3182" speedFactor="0.8868" arrival="207.00">
        <route edges="S_in E_out"/>
    </vehicle>

    <vehicle id="flow_flatten_r_S_to_E.7" type="car" depart="183.00" departLane="0" departPos="154.1317" departSpeed="12.3515" speedFactor="1.1275" arrival="208.00">
        <route edges="S_in E_out"/>
    </vehicle>

    <vehicle id="flow_flatten_r_N_to_W.6" type="truck" depart="165.00" departLane="1" departPos="138.898" departSpeed="11.4623" speedFactor="0.9465" arrival="210.00">
        <route edges="N_in W_out"/>
    </vehicle>

    <vehicle id="flow_flatten_r_N_to_S.14" type="truck" depart="152.00" departLane="1" departPos="170.5857" departSpeed="5.0279" speedFactor="0.9615" arrival="211.00">
        <route edges="N_in S_out"/>
    </vehicle>

    <vehicle id="flow_flatten_r_N_to_S.15" type="moto" depart="163.00" departLane="1" departPos="0.9771" departSpeed="7.6354" speedFactor="0.8917" arrival="211.00">
        <route edges="N_in S_out"/>
    </vehicle>

    <vehicle id="flow_flatten_r_N_to_N.3" type="moto" depart="159.00" departLane="0" departPos="22.6696" departSpeed="6.8451" speedFactor="0.9282" arrival="212.00">
        <route edges="N_in N_out"/>
    </vehicle>

    <vehicle id="flow_flatten_r_N_to_S.16" type="moto" depart="174.00" departLane="0" departPos="7.5649" departSpeed="12.9916" speedFactor="1.1523" arrival="212.00">
        <route edges="N_in S_out"/>
    </vehicle>

    <vehicle id="flow_flatten_r_S_to_N.16" type="car" depart="170.00" departLane="1" departPos="22.618" departSpeed="0.1601" speedFactor="0.8047" arrival="214.00">
        <route edges="S_in N_out"/>
    </vehicle>

    <vehicle id="flow_flatten_r_N_to_S.18" type="car" depart="195.00" departLane="0" departPos="182.8634" departSpeed="8.0147" speedFactor="1.0262" arrival="214.00">
        <route edges="N_in S_out"/>
    </vehicle>

    <vehicle id="flow_flatten_r_S_to_W.5" type="moto" depart="134.00" departLane="0" departPos="45.6162" departSpeed="14.6976" speedFactor="1.1421" arrival="215.00">
        <route edges="S_in W_out"/>
    </vehicle>

    <vehicle id="flow_flatten_r_W_to_E.12" type="car" depart="183.00" departLane="0" departPos="98.4033" departSpeed="5.8446" speedFactor="0.9838" arrival="218.00">
        <route edges="W_in E_out"/>
    </vehicle>

    <vehicle id="flow_flatten_r_E_to_N.5" type="car" depart="185.00" departLane="0" departPos="188.0912" departSpeed="1.5078" speedFactor="0.8963" arrival="219.00">
        <route edges="E_in N_out"/>
    </vehicle>

    <vehicle id="flow_flatten_r_W_to_S.5" type="car" depart="187.00" departLane="1" departPos="24.2894" departSpeed="12.4186" speedFactor="0.9559" arrival="220.00">
        <route edges="W_in S_out"/>
    </vehicle>

    <vehicle id="flow_flatten_r_W_to_E.13" type="truck" depart="198.00" departLane="1" departPos="186.6454" departSpeed="2.9536" speedFactor="0.9035" arrival="223.00">
        <route edges="W_in E_out"/>
    </vehicle>

    <vehicle id="flow_flatten_r_S_to_W.6" type="bus" depart="161.00" departLane="0" departPos="120.4896" departSpeed="11.3691" speedFactor="0.9554" arrival="230.00">
        <route edges="S_in W_out"/>
    </vehicle>

    <vehicle id="flow_flatten_r_E_to_W.13" type="bus" depart="191.00" departLane="1" departPos="181.1813" departSpeed="3.7005" speedFactor="0.9363" arrival="230.00">
        <route edges="E_in W_out"/>
    </vehicle>

    <vehicle id="flow_flatten_r_S_to_S.3" type="moto" depart="159.00" departLane="0" departPos="44.9537" departSpeed="5.4116" speedFactor="0.9059" arrival="234.00">
        <route edges="S_in S_out"/>
    </vehicle>

    <vehicle id="flow_flatten_r_W_to_N.5" type="car" depart="196.00" departLane="1" departPos="55.0563" departSpeed="2.5155" speedFactor="0.9311" arrival="234.00">
        <route edges="W_in N_out"/>
    </vehicle>

    <vehicle id="flow_flatten_r_N_to_S.17" type="moto" depart="185.00" departLane="1" departPos="22.6964" departSpeed="3.8704" speedFactor="1.0747" arrival="236.00">
        <route edges="N_in S_out"/>
    </vehicle>

    <vehicle id="flow_flatten_r_S_to_N.18" type="bus" depart="191.00" departLane="1" departPos="73.7109" departSpeed="13.1907" speedFactor="1.0167" arrival="237.00">
        <route edges="S_in N_out"/>
    </vehicle>

    <vehicle id="flow_flatten_r_N_to_W.7" type="bus" depart="192.00" departLane="1" departPos="79.4706" departSpeed="4.2835" speedFactor="0.9234" arrival="237.00">
        <route edges="N_in W_out"/>
    </vehicle>

    <vehicle id="flow_flatten_r_S_to_N.17" type="bus" depart="181.00" departLane="1" departPos="100.2317" departSpeed="7.8938" speedFactor="0.8815" arrival="238.00">
        <route edges="S_in N_out"/>
    </vehicle>
