<?xml version="1.0" encoding="UTF-8"?>

<!-- generated on 2025-12-12 07:58:52 by Eclipse SUMO sumo Version 1.18.0
<configuration xmlns:xsi="http://www.w3.org/2001/XMLSchema-instance" xsi:noNamespaceSchemaLocation="http://sumo.dlr.de/xsd/sumoConfiguration.xsd">

    <input>
        <net-file value="/workspace/nets/60p2k/net.net.xml"/>
        <route-files value="/workspace/nets/60p2k/route_temp_184_136390791920128_51269849.rou.xml"/>
    </input>

    <output>
        <summary-output value="../result_random/60p2k_e/llirl/summary_ep_4.xml"/>
        <tripinfo-output value="../result_random/60p2k_e/llirl/tripinfo_ep_4.xml"/>
        <vehroute-output value="../result_random/60p2k_e/llirl/vehroute_ep_4.xml"/>
    </output>

    <time>
        <begin value="0"/>
    </time>

    <report>
        <verbose value="true"/>
        <no-step-log value="true"/>
    </report>

    <traci_server>
        <remote-port value="56541"/>
    </traci_server>

    <gui_only>
        <gui-settings-file value="/workspace/nets/60p2k/gui-settings.xml"/>
        <quit-on-end value="true"/>
    </gui_only>

</configuration>
-->

<tripinfos xmlns:xsi="http://www.w3.org/2001/XMLSchema-instance" xsi:noNamespaceSchemaLocation="http://sumo.dlr.de/xsd/tripinfo_file.xsd">
    <tripinfo id="flow_5_phase1_S_straight.0" depart="0.00" departLane="S_in_1" departPos="107.37" departSpeed="7.21" departDelay="0.00" arrival="21.00" arrivalLane="N_out_1" arrivalPos="189.60" arrivalSpeed="15.82" duration="21.00" routeLength="292.63" waitingTime="0.00" waitingCount="0" stopTime="0.00" timeLoss="1.82" rerouteNo="0" devices="vehroute_flow_5_phase1_S_straight.0 tripinfo_flow_5_phase1_S_straight.0" vType="moto" speedFactor="1.15" vaporized=""/>
    <tripinfo id="flow_12_phase1_E_uturn.0" depart="0.00" departLane="S_in_0" departPos="129.89" departSpeed="13.76" departDelay="0.00" arrival="22.00" arrivalLane="E_out_0" arrivalPos="189.60" arrivalSpeed="13.11" duration="22.00" routeLength="258.34" waitingTime="0.00" waitingCount="0" stopTime="0.00" timeLoss="3.27" rerouteNo="0" devices="vehroute_flow_12_phase1_E_uturn.0 tripinfo_flow_12_phase1_E_uturn.0" vType="moto" speedFactor="1.03" vaporized=""/>
    <tripinfo id="flow_11_phase1_E_right.0" depart="0.00" departLane="N_in_1" departPos="144.95" departSpeed="4.02" departDelay="0.00" arrival="26.00" arrivalLane="W_out_0" arrivalPos="189.60" arrivalSpeed="12.94" duration="26.00" routeLength="243.28" waitingTime="0.00" waitingCount="0" stopTime="0.00" timeLoss="6.17" rerouteNo="0" devices="vehroute_flow_11_phase1_E_right.0 tripinfo_flow_11_phase1_E_right.0" vType="bus" speedFactor="0.96" vaporized=""/>
    <tripinfo id="flow_3_phase1_N_right.0" depart="0.00" departLane="N_in_0" departPos="103.38" departSpeed="3.75" departDelay="0.00" arrival="28.00" arrivalLane="W_out_0" arrivalPos="189.60" arrivalSpeed="14.82" duration="28.00" routeLength="284.85" waitingTime="0.00" waitingCount="0" stopTime="0.00" timeLoss="8.28" rerouteNo="0" devices="vehroute_flow_3_phase1_N_right.0 tripinfo_flow_3_phase1_N_right.0" vType="car" speedFactor="1.09" vaporized=""/>
    <tripinfo id="flow_6_phase1_S_left.0" depart="0.00" departLane="N_in_1" departPos="166.01" departSpeed="0.74" departDelay="0.00" arrival="28.00" arrivalLane="N_out_1" arrivalPos="189.60" arrivalSpeed="11.04" duration="28.00" routeLength="217.86" waitingTime="1.00" waitingCount="1" stopTime="0.00" timeLoss="8.42" rerouteNo="0" devices="vehroute_flow_6_phase1_S_left.0 tripinfo_flow_6_phase1_S_left.0" vType="moto" speedFactor="0.88" vaporized=""/>
    <tripinfo id="flow_4_phase1_N_uturn.0" depart="0.00" departLane="N_in_1" departPos="127.60" departSpeed="0.08" departDelay="0.00" arrival="30.00" arrivalLane="N_out_1" arrivalPos="189.60" arrivalSpeed="12.22" duration="30.00" routeLength="256.27" waitingTime="0.00" waitingCount="0" stopTime="0.00" timeLoss="8.40" rerouteNo="0" devices="vehroute_flow_4_phase1_N_uturn.0 tripinfo_flow_4_phase1_N_uturn.0" vType="car" speedFactor="0.92" vaporized=""/>
    <tripinfo id="flow_2_phase1_N_left.0" depart="0.00" departLane="S_in_1" departPos="8.27" departSpeed="8.33" departDelay="0.00" arrival="31.00" arrivalLane="E_out_0" arrivalPos="189.60" arrivalSpeed="12.86" duration="31.00" routeLength="379.96" waitingTime="0.00" waitingCount="0" stopTime="0.00" timeLoss="3.17" rerouteNo="0" devices="vehroute_flow_2_phase1_N_left.0 tripinfo_flow_2_phase1_N_left.0" vType="moto" speedFactor="1.02" vaporized=""/>
    <tripinfo id="flow_8_phase1_S_uturn.0" depart="0.00" departLane="E_in_0" departPos="120.11" departSpeed="4.48" departDelay="0.00" arrival="34.00" arrivalLane="N_out_0" arrivalPos="189.60" arrivalSpeed="14.50" duration="34.00" routeLength="268.12" waitingTime="8.00" waitingCount="1" stopTime="0.00" timeLoss="15.05" rerouteNo="0" devices="vehroute_flow_8_phase1_S_uturn.0 tripinfo_flow_8_phase1_S_uturn.0" vType="moto" speedFactor="1.05" vaporized=""/>
    <tripinfo id="flow_16_phase1_W_uturn.0" depart="0.00" departLane="W_in_0" departPos="126.68" departSpeed="11.71" departDelay="0.00" arrival="35.00" arrivalLane="W_out_1" arrivalPos="189.60" arrivalSpeed="14.00" duration="35.00" routeLength="257.19" waitingTime="11.00" waitingCount="1" stopTime="0.00" timeLoss="16.58" rerouteNo="0" devices="vehroute_flow_16_phase1_W_uturn.0 tripinfo_flow_16_phase1_W_uturn.0" vType="moto" speedFactor="1.04" vaporized=""/>
    <tripinfo id="flow_9_phase1_E_straight.1" depart="13.00" departLane="W_in_0" departPos="131.13" departSpeed="9.54" departDelay="0.09" arrival="39.00" arrivalLane="S_out_1" arrivalPos="189.60" arrivalSpeed="14.81" duration="26.00" routeLength="257.10" waitingTime="0.00" waitingCount="0" stopTime="0.00" timeLoss="8.47" rerouteNo="0" devices="vehroute_flow_9_phase1_E_straight.1 tripinfo_flow_9_phase1_E_straight.1" vType="moto" speedFactor="1.16" vaporized=""/>
    <tripinfo id="flow_14_phase1_W_left.0" depart="0.00" departLane="W_in_1" departPos="50.07" departSpeed="13.54" departDelay="0.00" arrival="40.00" arrivalLane="N_out_1" arrivalPos="189.60" arrivalSpeed="13.05" duration="40.00" routeLength="348.48" waitingTime="6.00" waitingCount="1" stopTime="0.00" timeLoss="14.02" rerouteNo="0" devices="vehroute_flow_14_phase1_W_left.0 tripinfo_flow_14_phase1_W_left.0" vType="moto" speedFactor="1.01" vaporized=""/>
    <tripinfo id="flow_15_phase1_W_right.0" depart="0.00" departLane="W_in_1" departPos="108.38" departSpeed="1.98" departDelay="0.00" arrival="40.00" arrivalLane="E_out_0" arrivalPos="189.60" arrivalSpeed="11.32" duration="40.00" routeLength="291.62" waitingTime="7.00" waitingCount="1" stopTime="0.00" timeLoss="14.84" rerouteNo="0" devices="vehroute_flow_15_phase1_W_right.0 tripinfo_flow_15_phase1_W_right.0" vType="moto" speedFactor="0.85" vaporized=""/>
    <tripinfo id="flow_9_phase1_E_straight.0" depart="0.00" departLane="W_in_0" departPos="168.29" departSpeed="9.83" departDelay="0.00" arrival="41.00" arrivalLane="S_out_0" arrivalPos="189.60" arrivalSpeed="12.19" duration="41.00" routeLength="219.94" waitingTime="12.00" waitingCount="1" stopTime="0.00" timeLoss="21.83" rerouteNo="0" devices="vehroute_flow_9_phase1_E_straight.0 tripinfo_flow_9_phase1_E_straight.0" vType="truck" speedFactor="0.90" vaporized=""/>
    <tripinfo id="flow_13_phase1_W_straight.1" depart="14.00" departLane="W_in_1" departPos="121.65" departSpeed="2.86" departDelay="0.58" arrival="41.00" arrivalLane="E_out_1" arrivalPos="189.60" arrivalSpeed="14.86" duration="27.00" routeLength="278.35" waitingTime="0.00" waitingCount="0" stopTime="0.00" timeLoss="8.96" rerouteNo="0" devices="vehroute_flow_13_phase1_W_straight.1 tripinfo_flow_13_phase1_W_straight.1" vType="car" speedFactor="1.12" vaporized=""/>
    <tripinfo id="flow_13_phase1_W_straight.0" depart="0.00" departLane="W_in_0" departPos="23.77" departSpeed="1.48" departDelay="0.00" arrival="47.00" arrivalLane="E_out_0" arrivalPos="189.60" arrivalSpeed="11.10" duration="47.00" routeLength="376.23" waitingTime="0.00" waitingCount="0" stopTime="0.00" timeLoss="13.36" rerouteNo="0" devices="vehroute_flow_13_phase1_W_straight.0 tripinfo_flow_13_phase1_W_straight.0" vType="container" speedFactor="0.82" vaporized=""/>
    <tripinfo id="flow_5_phase1_S_straight.1" depart="14.00" departLane="S_in_1" departPos="31.93" departSpeed="9.28" departDelay="0.74" arrival="47.00" arrivalLane="N_out_0" arrivalPos="189.60" arrivalSpeed="15.03" duration="33.00" routeLength="368.07" waitingTime="1.00" waitingCount="1" stopTime="0.00" timeLoss="9.92" rerouteNo="0" devices="vehroute_flow_5_phase1_S_straight.1 tripinfo_flow_5_phase1_S_straight.1" vType="moto" speedFactor="1.19" vaporized=""/>
    <tripinfo id="flow_10_phase1_E_left.0" depart="0.00" departLane="E_in_0" departPos="44.88" departSpeed="7.69" departDelay="0.00" arrival="49.00" arrivalLane="E_out_1" arrivalPos="189.60" arrivalSpeed="13.50" duration="49.00" routeLength="338.99" waitingTime="10.00" waitingCount="2" stopTime="0.00" timeLoss="24.01" rerouteNo="0" devices="vehroute_flow_10_phase1_E_left.0 tripinfo_flow_10_phase1_E_left.0" vType="truck" speedFactor="1.02" vaporized=""/>
    <tripinfo id="flow_1_phase1_N_straight.1" depart="14.00" departLane="N_in_1" departPos="58.36" departSpeed="11.64" departDelay="0.45" arrival="51.00" arrivalLane="S_out_0" arrivalPos="189.60" arrivalSpeed="11.90" duration="37.00" routeLength="341.64" waitingTime="2.00" waitingCount="1" stopTime="0.00" timeLoss="8.60" rerouteNo="0" devices="vehroute_flow_1_phase1_N_straight.1 tripinfo_flow_1_phase1_N_straight.1" vType="moto" speedFactor="0.87" vaporized=""/>
    <tripinfo id="flow_1_phase1_N_straight.0" depart="0.00" departLane="N_in_0" departPos="8.62" departSpeed="8.51" departDelay="0.00" arrival="55.00" arrivalLane="S_out_0" arrivalPos="189.60" arrivalSpeed="11.90" duration="55.00" routeLength="391.38" waitingTime="11.00" waitingCount="1" stopTime="0.00" timeLoss="22.00" rerouteNo="0" devices="vehroute_flow_1_phase1_N_straight.0 tripinfo_flow_1_phase1_N_straight.0" vType="bus" speedFactor="0.86" vaporized=""/>
    <tripinfo id="flow_2_phase1_N_left.1" depart="33.00" departLane="S_in_0" departPos="136.87" departSpeed="1.25" departDelay="0.24" arrival="55.00" arrivalLane="E_out_0" arrivalPos="189.60" arrivalSpeed="15.02" duration="22.00" routeLength="251.36" waitingTime="0.00" waitingCount="0" stopTime="0.00" timeLoss="4.67" rerouteNo="0" devices="vehroute_flow_2_phase1_N_left.1 tripinfo_flow_2_phase1_N_left.1" vType="moto" speedFactor="1.12" vaporized=""/>
    <tripinfo id="flow_11_phase1_E_right.1" depart="33.00" departLane="N_in_1" departPos="116.63" departSpeed="6.10" departDelay="0.43" arrival="57.00" arrivalLane="W_out_0" arrivalPos="189.60" arrivalSpeed="14.34" duration="24.00" routeLength="271.60" waitingTime="0.00" waitingCount="0" stopTime="0.00" timeLoss="3.42" rerouteNo="0" devices="vehroute_flow_11_phase1_E_right.1 tripinfo_flow_11_phase1_E_right.1" vType="moto" speedFactor="1.04" vaporized=""/>
    <tripinfo id="flow_15_phase1_W_right.1" depart="33.00" departLane="W_in_0" departPos="156.52" departSpeed="7.69" departDelay="0.08" arrival="65.00" arrivalLane="E_out_0" arrivalPos="189.60" arrivalSpeed="14.77" duration="32.00" routeLength="243.48" waitingTime="5.00" waitingCount="1" stopTime="0.00" timeLoss="14.95" rerouteNo="0" devices="vehroute_flow_15_phase1_W_right.1 tripinfo_flow_15_phase1_W_right.1" vType="moto" speedFactor="1.08" vaporized=""/>
    <tripinfo id="flow_9_phase1_E_straight.2" depart="26.00" departLane="W_in_1" departPos="52.87" departSpeed="0.38" departDelay="0.18" arrival="66.00" arrivalLane="S_out_0" arrivalPos="189.60" arrivalSpeed="12.71" duration="40.00" routeLength="335.36" waitingTime="4.00" waitingCount="1" stopTime="0.00" timeLoss="14.71" rerouteNo="0" devices="vehroute_flow_9_phase1_E_straight.2 tripinfo_flow_9_phase1_E_straight.2" vType="moto" speedFactor="0.99" vaporized=""/>
    <tripinfo id="flow_7_phase1_S_right.0" depart="0.00" departLane="S_in_0" departPos="8.76" departSpeed="8.07" departDelay="0.00" arrival="67.00" arrivalLane="W_out_0" arrivalPos="189.60" arrivalSpeed="11.78" duration="67.00" routeLength="389.79" waitingTime="16.00" waitingCount="2" stopTime="0.00" timeLoss="32.59" rerouteNo="0" devices="vehroute_flow_7_phase1_S_right.0 tripinfo_flow_7_phase1_S_right.0" vType="container" speedFactor="0.85" vaporized=""/>
    <tripinfo id="flow_13_phase1_W_straight.2" depart="27.00" departLane="W_in_1" departPos="16.31" departSpeed="12.80" departDelay="0.17" arrival="71.00" arrivalLane="E_out_1" arrivalPos="189.60" arrivalSpeed="12.76" duration="44.00" routeLength="383.69" waitingTime="1.00" waitingCount="1" stopTime="0.00" timeLoss="15.05" rerouteNo="0" devices="vehroute_flow_13_phase1_W_straight.2 tripinfo_flow_13_phase1_W_straight.2" vType="bus" speedFactor="0.97" vaporized=""/>
    <tripinfo id="flow_9_phase1_E_straight.3" depart="39.00" departLane="W_in_1" departPos="56.18" departSpeed="5.39" departDelay="0.28" arrival="73.00" arrivalLane="S_out_0" arrivalPos="189.60" arrivalSpeed="11.29" duration="34.00" routeLength="332.05" waitingTime="0.00" waitingCount="0" stopTime="0.00" timeLoss="4.60" rerouteNo="0" devices="vehroute_flow_9_phase1_E_straight.3 tripinfo_flow_9_phase1_E_straight.3" vType="bus" speedFactor="0.85" vaporized=""/>
    <tripinfo id="flow_5_phase1_S_straight.3" depart="40.00" departLane="S_in_0" departPos="132.62" departSpeed="5.13" departDelay="0.22" arrival="74.00" arrivalLane="N_out_0" arrivalPos="189.60" arrivalSpeed="14.69" duration="34.00" routeLength="267.38" waitingTime="7.00" waitingCount="1" stopTime="0.00" timeLoss="15.63" rerouteNo="0" devices="vehroute_flow_5_phase1_S_straight.3 tripinfo_flow_5_phase1_S_straight.3" vType="moto" speedFactor="1.08" vaporized=""/>
    <tripinfo id="flow_5_phase1_S_straight.2" depart="27.00" departLane="S_in_1" departPos="12.70" departSpeed="12.41" departDelay="0.48" arrival="76.00" arrivalLane="N_out_0" arrivalPos="189.60" arrivalSpeed="12.85" duration="49.00" routeLength="387.30" waitingTime="9.00" waitingCount="1" stopTime="0.00" timeLoss="19.10" rerouteNo="0" devices="vehroute_flow_5_phase1_S_straight.2 tripinfo_flow_5_phase1_S_straight.2" vType="moto" speedFactor="0.96" vaporized=""/>
    <tripinfo id="flow_3_phase1_N_right.1" depart="35.00" departLane="N_in_1" departPos="118.54" departSpeed="10.72" departDelay="0.74" arrival="77.00" arrivalLane="W_out_0" arrivalPos="189.60" arrivalSpeed="12.18" duration="42.00" routeLength="269.69" waitingTime="14.00" waitingCount="1" stopTime="0.00" timeLoss="18.60" rerouteNo="0" devices="vehroute_flow_3_phase1_N_right.1 tripinfo_flow_3_phase1_N_right.1" vType="moto" speedFactor="0.88" vaporized=""/>
    <tripinfo id="flow_1_phase1_N_straight.2" depart="28.00" departLane="N_in_0" departPos="34.25" departSpeed="2.67" departDelay="0.90" arrival="78.00" arrivalLane="S_out_0" arrivalPos="189.60" arrivalSpeed="12.59" duration="50.00" routeLength="365.75" waitingTime="12.00" waitingCount="1" stopTime="0.00" timeLoss="21.03" rerouteNo="0" devices="vehroute_flow_1_phase1_N_straight.2 tripinfo_flow_1_phase1_N_straight.2" vType="moto" speedFactor="0.93" vaporized=""/>
    <tripinfo id="flow_6_phase1_S_left.1" depart="34.00" departLane="N_in_0" departPos="69.24" departSpeed="6.06" departDelay="0.47" arrival="78.00" arrivalLane="N_out_1" arrivalPos="189.60" arrivalSpeed="13.41" duration="44.00" routeLength="314.63" waitingTime="11.00" waitingCount="2" stopTime="0.00" timeLoss="20.98" rerouteNo="0" devices="vehroute_flow_6_phase1_S_left.1 tripinfo_flow_6_phase1_S_left.1" vType="moto" speedFactor="1.05" vaporized=""/>
    <tripinfo id="flow_1_phase1_N_straight.3" depart="41.00" departLane="N_in_0" departPos="125.48" departSpeed="7.46" departDelay="0.35" arrival="79.00" arrivalLane="S_out_1" arrivalPos="189.60" arrivalSpeed="14.95" duration="38.00" routeLength="274.52" waitingTime="8.00" waitingCount="2" stopTime="0.00" timeLoss="20.82" rerouteNo="0" devices="vehroute_flow_1_phase1_N_straight.3 tripinfo_flow_1_phase1_N_straight.3" vType="moto" speedFactor="1.20" vaporized=""/>
    <tripinfo id="flow_1_phase1_N_straight.4" depart="55.00" departLane="N_in_0" departPos="125.76" departSpeed="4.40" departDelay="0.80" arrival="81.00" arrivalLane="S_out_0" arrivalPos="189.60" arrivalSpeed="12.06" duration="26.00" routeLength="274.24" waitingTime="0.00" waitingCount="0" stopTime="0.00" timeLoss="3.96" rerouteNo="0" devices="vehroute_flow_1_phase1_N_straight.4 tripinfo_flow_1_phase1_N_straight.4" vType="truck" speedFactor="0.92" vaporized=""/>
    <tripinfo id="flow_8_phase1_S_uturn.1" depart="67.00" departLane="E_in_1" departPos="172.37" departSpeed="6.55" departDelay="0.92" arrival="87.00" arrivalLane="N_out_0" arrivalPos="189.60" arrivalSpeed="14.14" duration="20.00" routeLength="215.86" waitingTime="0.00" waitingCount="0" stopTime="0.00" timeLoss="3.48" rerouteNo="0" devices="vehroute_flow_8_phase1_S_uturn.1 tripinfo_flow_8_phase1_S_uturn.1" vType="moto" speedFactor="1.03" vaporized=""/>
    <tripinfo id="flow_7_phase1_S_right.1" depart="33.00" departLane="S_in_1" departPos="40.26" departSpeed="3.16" departDelay="0.43" arrival="93.00" arrivalLane="W_out_0" arrivalPos="189.60" arrivalSpeed="10.28" duration="60.00" routeLength="358.29" waitingTime="6.00" waitingCount="2" stopTime="0.00" timeLoss="25.86" rerouteNo="0" devices="vehroute_flow_7_phase1_S_right.1 tripinfo_flow_7_phase1_S_right.1" vType="container" speedFactor="0.78" vaporized=""/>
    <tripinfo id="flow_9_phase1_E_straight.4" depart="52.00" departLane="W_in_0" departPos="167.23" departSpeed="1.87" departDelay="0.37" arrival="93.00" arrivalLane="S_out_0" arrivalPos="189.60" arrivalSpeed="12.81" duration="41.00" routeLength="221.00" waitingTime="11.00" waitingCount="1" stopTime="0.00" timeLoss="22.96" rerouteNo="0" devices="vehroute_flow_9_phase1_E_straight.4 tripinfo_flow_9_phase1_E_straight.4" vType="bus" speedFactor="0.95" vaporized=""/>
    <tripinfo id="flow_10_phase1_E_left.1" depart="34.00" departLane="E_in_1" departPos="57.40" departSpeed="0.25" departDelay="0.42" arrival="94.00" arrivalLane="E_out_0" arrivalPos="189.60" arrivalSpeed="10.20" duration="60.00" routeLength="326.47" waitingTime="15.00" waitingCount="1" stopTime="0.00" timeLoss="28.25" rerouteNo="0" devices="vehroute_flow_10_phase1_E_left.1 tripinfo_flow_10_phase1_E_left.1" vType="truck" speedFactor="0.77" vaporized=""/>
    <tripinfo id="flow_10_phase1_E_left.2" depart="68.00" departLane="E_in_1" departPos="84.30" departSpeed="10.44" departDelay="0.84" arrival="96.00" arrivalLane="E_out_1" arrivalPos="189.60" arrivalSpeed="14.36" duration="28.00" routeLength="299.57" waitingTime="0.00" waitingCount="0" stopTime="0.00" timeLoss="5.38" rerouteNo="0" devices="vehroute_flow_10_phase1_E_left.2 tripinfo_flow_10_phase1_E_left.2" vType="moto" speedFactor="1.04" vaporized=""/>
    <tripinfo id="flow_13_phase1_W_straight.4" depart="54.00" departLane="W_in_0" departPos="29.12" departSpeed="8.16" departDelay="0.34" arrival="97.00" arrivalLane="E_out_0" arrivalPos="189.60" arrivalSpeed="11.63" duration="43.00" routeLength="370.88" waitingTime="0.00" waitingCount="0" stopTime="0.00" timeLoss="12.22" rerouteNo="0" devices="vehroute_flow_13_phase1_W_straight.4 tripinfo_flow_13_phase1_W_straight.4" vType="bus" speedFactor="0.87" vaporized=""/>
    <tripinfo id="flow_11_phase1_E_right.2" depart="66.00" departLane="N_in_0" departPos="179.13" departSpeed="12.54" departDelay="0.87" arrival="99.00" arrivalLane="W_out_0" arrivalPos="189.60" arrivalSpeed="15.20" duration="33.00" routeLength="209.10" waitingTime="14.00" waitingCount="1" stopTime="0.00" timeLoss="17.87" rerouteNo="0" devices="vehroute_flow_11_phase1_E_right.2 tripinfo_flow_11_phase1_E_right.2" vType="emergency" speedFactor="1.10" vaporized=""/>
    <tripinfo id="flow_3_phase1_N_right.2" depart="69.00" departLane="N_in_0" departPos="149.69" departSpeed="1.99" departDelay="0.47" arrival="101.00" arrivalLane="W_out_0" arrivalPos="189.60" arrivalSpeed="14.52" duration="32.00" routeLength="238.54" waitingTime="7.00" waitingCount="1" stopTime="0.00" timeLoss="15.79" rerouteNo="0" devices="vehroute_flow_3_phase1_N_right.2 tripinfo_flow_3_phase1_N_right.2" vType="moto" speedFactor="1.10" vaporized=""/>
    <tripinfo id="flow_14_phase1_W_left.1" depart="35.00" departLane="W_in_1" departPos="80.60" departSpeed="6.26" departDelay="0.45" arrival="103.00" arrivalLane="N_out_0" arrivalPos="189.60" arrivalSpeed="12.38" duration="68.00" routeLength="317.95" waitingTime="13.00" waitingCount="2" stopTime="0.00" timeLoss="41.67" rerouteNo="0" devices="vehroute_flow_14_phase1_W_left.1 tripinfo_flow_14_phase1_W_left.1" vType="container" speedFactor="0.91" vaporized=""/>
    <tripinfo id="flow_2_phase1_N_left.2" depart="66.00" departLane="S_in_1" departPos="112.37" departSpeed="9.43" departDelay="0.48" arrival="105.00" arrivalLane="E_out_1" arrivalPos="189.60" arrivalSpeed="13.30" duration="39.00" routeLength="275.86" waitingTime="3.00" waitingCount="1" stopTime="0.00" timeLoss="18.43" rerouteNo="0" devices="vehroute_flow_2_phase1_N_left.2 tripinfo_flow_2_phase1_N_left.2" vType="moto" speedFactor="1.00" vaporized=""/>
    <tripinfo id="flow_12_phase1_E_uturn.1" depart="66.00" departLane="S_in_0" departPos="185.99" departSpeed="0.19" departDelay="0.03" arrival="105.00" arrivalLane="E_out_0" arrivalPos="189.60" arrivalSpeed="12.30" duration="39.00" routeLength="202.24" waitingTime="13.00" waitingCount="1" stopTime="0.00" timeLoss="22.24" rerouteNo="0" devices="vehroute_flow_12_phase1_E_uturn.1 tripinfo_flow_12_phase1_E_uturn.1" vType="truck" speedFactor="0.94" vaporized=""/>
    <tripinfo id="flow_5_phase1_S_straight.5" depart="67.00" departLane="S_in_1" departPos="174.17" departSpeed="0.01" departDelay="0.70" arrival="105.00" arrivalLane="N_out_1" arrivalPos="189.60" arrivalSpeed="12.39" duration="38.00" routeLength="225.83" waitingTime="8.00" waitingCount="1" stopTime="0.00" timeLoss="20.39" rerouteNo="0" devices="vehroute_flow_5_phase1_S_straight.5 tripinfo_flow_5_phase1_S_straight.5" vType="moto" speedFactor="0.94" vaporized=""/>
    <tripinfo id="flow_1_phase1_N_straight.5" depart="68.00" departLane="N_in_0" departPos="63.10" departSpeed="12.51" departDelay="0.26" arrival="106.00" arrivalLane="S_out_0" arrivalPos="189.60" arrivalSpeed="14.10" duration="38.00" routeLength="336.90" waitingTime="2.00" waitingCount="1" stopTime="0.00" timeLoss="14.43" rerouteNo="0" devices="vehroute_flow_1_phase1_N_straight.5 tripinfo_flow_1_phase1_N_straight.5" vType="moto" speedFactor="1.07" vaporized=""/>
    <tripinfo id="flow_5_phase1_S_straight.6" depart="80.00" departLane="S_in_1" departPos="88.32" departSpeed="12.99" departDelay="0.43" arrival="107.00" arrivalLane="N_out_0" arrivalPos="189.60" arrivalSpeed="15.05" duration="27.00" routeLength="311.68" waitingTime="0.00" waitingCount="0" stopTime="0.00" timeLoss="5.90" rerouteNo="0" devices="vehroute_flow_5_phase1_S_straight.6 tripinfo_flow_5_phase1_S_straight.6" vType="moto" speedFactor="1.10" vaporized=""/>
    <tripinfo id="flow_7_phase1_S_right.2" depart="66.00" departLane="S_in_1" departPos="162.40" departSpeed="1.63" departDelay="0.86" arrival="109.00" arrivalLane="W_out_1" arrivalPos="189.60" arrivalSpeed="15.22" duration="43.00" routeLength="236.15" waitingTime="12.00" waitingCount="2" stopTime="0.00" timeLoss="26.99" rerouteNo="0" devices="vehroute_flow_7_phase1_S_right.2 tripinfo_flow_7_phase1_S_right.2" vType="moto" speedFactor="1.14" vaporized=""/>
    <tripinfo id="flow_4_phase1_N_uturn.1" depart="67.00" departLane="N_in_1" departPos="89.17" departSpeed="9.85" departDelay="0.80" arrival="112.00" arrivalLane="N_out_1" arrivalPos="189.60" arrivalSpeed="11.40" duration="45.00" routeLength="294.70" waitingTime="12.00" waitingCount="2" stopTime="0.00" timeLoss="19.40" rerouteNo="0" devices="vehroute_flow_4_phase1_N_uturn.1 tripinfo_flow_4_phase1_N_uturn.1" vType="moto" speedFactor="0.89" vaporized=""/>
    <tripinfo id="flow_13_phase1_W_straight.3" depart="41.00" departLane="W_in_1" departPos="23.57" departSpeed="4.10" departDelay="0.75" arrival="114.00" arrivalLane="E_out_0" arrivalPos="189.60" arrivalSpeed="13.84" duration="73.00" routeLength="376.43" waitingTime="23.00" waitingCount="2" stopTime="0.00" timeLoss="46.68" rerouteNo="0" devices="vehroute_flow_13_phase1_W_straight.3 tripinfo_flow_13_phase1_W_straight.3" vType="car" speedFactor="1.05" vaporized=""/>
    <tripinfo id="flow_9_phase1_E_straight.5" depart="65.00" departLane="W_in_0" departPos="52.57" departSpeed="8.42" departDelay="0.46" arrival="114.00" arrivalLane="S_out_0" arrivalPos="189.60" arrivalSpeed="13.69" duration="49.00" routeLength="335.66" waitingTime="13.00" waitingCount="1" stopTime="0.00" timeLoss="23.91" rerouteNo="0" devices="vehroute_flow_9_phase1_E_straight.5 tripinfo_flow_9_phase1_E_straight.5" vType="moto" speedFactor="1.03" vaporized=""/>
    <tripinfo id="flow_15_phase1_W_right.2" depart="66.00" departLane="W_in_0" departPos="31.76" departSpeed="6.39" departDelay="0.17" arrival="117.00" arrivalLane="E_out_0" arrivalPos="189.60" arrivalSpeed="12.78" duration="51.00" routeLength="368.24" waitingTime="12.00" waitingCount="1" stopTime="0.00" timeLoss="23.02" rerouteNo="0" devices="vehroute_flow_15_phase1_W_right.2 tripinfo_flow_15_phase1_W_right.2" vType="moto" speedFactor="0.95" vaporized=""/>
    <tripinfo id="flow_13_phase1_W_straight.6" depart="81.00" departLane="W_in_0" departPos="178.36" departSpeed="0.91" departDelay="0.50" arrival="119.00" arrivalLane="E_out_0" arrivalPos="189.60" arrivalSpeed="13.34" duration="38.00" routeLength="221.64" waitingTime="12.00" waitingCount="1" stopTime="0.00" timeLoss="20.96" rerouteNo="0" devices="vehroute_flow_13_phase1_W_straight.6 tripinfo_flow_13_phase1_W_straight.6" vType="car" speedFactor="0.98" vaporized=""/>
    <tripinfo id="flow_9_phase1_E_straight.6" depart="78.00" departLane="W_in_1" departPos="60.83" departSpeed="2.77" departDelay="0.55" arrival="120.00" arrivalLane="S_out_0" arrivalPos="189.60" arrivalSpeed="13.15" duration="42.00" routeLength="327.40" waitingTime="8.00" waitingCount="1" stopTime="0.00" timeLoss="17.37" rerouteNo="0" devices="vehroute_flow_9_phase1_E_straight.6 tripinfo_flow_9_phase1_E_straight.6" vType="moto" speedFactor="1.02" vaporized=""/>
    <tripinfo id="flow_16_phase1_W_uturn.1" depart="67.00" departLane="W_in_0" departPos="148.65" departSpeed="1.42" departDelay="0.64" arrival="121.00" arrivalLane="W_out_0" arrivalPos="189.60" arrivalSpeed="11.85" duration="54.00" routeLength="235.22" waitingTime="9.00" waitingCount="1" stopTime="0.00" timeLoss="33.56" rerouteNo="0" devices="vehroute_flow_16_phase1_W_uturn.1 tripinfo_flow_16_phase1_W_uturn.1" vType="truck" speedFactor="0.89" vaporized=""/>
    <tripinfo id="flow_13_phase1_W_straight.5" depart="68.00" departLane="W_in_1" departPos="29.88" departSpeed="10.05" departDelay="0.92" arrival="124.00" arrivalLane="E_out_0" arrivalPos="189.60" arrivalSpeed="12.23" duration="56.00" routeLength="370.12" waitingTime="10.00" waitingCount="2" stopTime="0.00" timeLoss="25.87" rerouteNo="0" devices="vehroute_flow_13_phase1_W_straight.5 tripinfo_flow_13_phase1_W_straight.5" vType="moto" speedFactor="0.90" vaporized=""/>
    <tripinfo id="flow_14_phase1_W_left.2" depart="70.00" departLane="W_in_0" departPos="42.85" departSpeed="1.22" departDelay="0.90" arrival="124.00" arrivalLane="N_out_1" arrivalPos="189.60" arrivalSpeed="11.87" duration="54.00" routeLength="355.70" waitingTime="5.00" waitingCount="2" stopTime="0.00" timeLoss="24.30" rerouteNo="0" devices="vehroute_flow_14_phase1_W_left.2 tripinfo_flow_14_phase1_W_left.2" vType="car" speedFactor="0.90" vaporized=""/>
    <tripinfo id="flow_10_phase1_E_left.3" depart="101.00" departLane="E_in_0" departPos="173.60" departSpeed="3.29" departDelay="0.26" arrival="125.00" arrivalLane="E_out_1" arrivalPos="189.60" arrivalSpeed="14.58" duration="24.00" routeLength="210.27" waitingTime="0.00" waitingCount="0" stopTime="0.00" timeLoss="7.66" rerouteNo="0" devices="vehroute_flow_10_phase1_E_left.3 tripinfo_flow_10_phase1_E_left.3" vType="truck" speedFactor="1.07" vaporized=""/>
    <tripinfo id="flow_1_phase1_N_straight.6" depart="82.00" departLane="N_in_1" departPos="107.80" departSpeed="12.50" departDelay="0.71" arrival="128.00" arrivalLane="S_out_0" arrivalPos="189.60" arrivalSpeed="13.05" duration="46.00" routeLength="292.20" waitingTime="14.00" waitingCount="1" stopTime="0.00" timeLoss="23.84" rerouteNo="0" devices="vehroute_flow_1_phase1_N_straight.6 tripinfo_flow_1_phase1_N_straight.6" vType="car" speedFactor="0.98" vaporized=""/>
    <tripinfo id="flow_7_phase1_S_right.3" depart="98.00" departLane="S_in_0" departPos="150.32" departSpeed="6.39" departDelay="0.28" arrival="131.00" arrivalLane="W_out_1" arrivalPos="189.60" arrivalSpeed="14.57" duration="33.00" routeLength="248.23" waitingTime="3.00" waitingCount="1" stopTime="0.00" timeLoss="15.49" rerouteNo="0" devices="vehroute_flow_7_phase1_S_right.3 tripinfo_flow_7_phase1_S_right.3" vType="moto" speedFactor="1.07" vaporized=""/>
    <tripinfo id="flow_5_phase1_S_straight.7" depart="93.00" departLane="S_in_1" departPos="142.12" departSpeed="0.44" departDelay="0.17" arrival="132.00" arrivalLane="N_out_0" arrivalPos="189.60" arrivalSpeed="11.86" duration="39.00" routeLength="257.88" waitingTime="3.00" waitingCount="1" stopTime="0.00" timeLoss="17.98" rerouteNo="0" devices="vehroute_flow_5_phase1_S_straight.7 tripinfo_flow_5_phase1_S_straight.7" vType="bus" speedFactor="0.90" vaporized=""/>
    <tripinfo id="flow_1_phase1_N_straight.7" depart="95.00" departLane="N_in_1" departPos="111.57" departSpeed="0.11" departDelay="0.16" arrival="134.00" arrivalLane="S_out_0" arrivalPos="189.60" arrivalSpeed="14.14" duration="39.00" routeLength="288.43" waitingTime="7.00" waitingCount="2" stopTime="0.00" timeLoss="19.34" rerouteNo="0" devices="vehroute_flow_1_phase1_N_straight.7 tripinfo_flow_1_phase1_N_straight.7" vType="moto" speedFactor="1.06" vaporized=""/>