<?xml version="1.0" encoding="UTF-8"?>

<!-- generated on 2025-12-12 07:58:25 by Eclipse SUMO sumo Version 1.18.0
<configuration xmlns:xsi="http://www.w3.org/2001/XMLSchema-instance" xsi:noNamespaceSchemaLocation="http://sumo.dlr.de/xsd/sumoConfiguration.xsd">

    <input>
        <net-file value="/workspace/nets/60p2k/net.net.xml"/>
        <route-files value="/workspace/nets/60p2k/route_temp_184_136390791920128_51269849.rou.xml"/>
    </input>

    <output>
        <summary-output value="../result_random/60p2k_e/llirl/summary_ep_3.xml"/>
        <tripinfo-output value="../result_random/60p2k_e/llirl/tripinfo_ep_3.xml"/>
        <vehroute-output value="../result_random/60p2k_e/llirl/vehroute_ep_3.xml"/>
    </output>

    <time>
        <begin value="0"/>
    </time>

    <report>
        <verbose value="true"/>
        <no-step-log value="true"/>
    </report>

    <traci_server>
        <remote-port value="52331"/>
    </traci_server>

    <gui_only>
        <gui-settings-file value="/workspace/nets/60p2k/gui-settings.xml"/>
        <quit-on-end value="true"/>
    </gui_only>

</configuration>
-->

<tripinfos xmlns:xsi="http://www.w3.org/2001/XMLSchema-instance" xsi:noNamespaceSchemaLocation="http://sumo.dlr.de/xsd/tripinfo_file.xsd">
    <tripinfo id="flow_5_phase1_S_straight.0" depart="0.00" departLane="S_in_1" departPos="107.37" departSpeed="7.21" departDelay="0.00" arrival="21.00" arrivalLane="N_out_1" arrivalPos="189.60" arrivalSpeed="15.92" duration="21.00" routeLength="292.63" waitingTime="0.00" waitingCount="0" stopTime="0.00" timeLoss="2.08" rerouteNo="0" devices="vehroute_flow_5_phase1_S_straight.0 tripinfo_flow_5_phase1_S_straight.0" vType="moto" speedFactor="1.15" vaporized=""/>
    <tripinfo id="flow_3_phase1_N_right.0" depart="0.00" departLane="S_in_0" departPos="103.38" departSpeed="3.75" departDelay="0.00" arrival="24.00" arrivalLane="E_out_0" arrivalPos="189.60" arrivalSpeed="14.80" duration="24.00" routeLength="284.85" waitingTime="0.00" waitingCount="0" stopTime="0.00" timeLoss="4.63" rerouteNo="0" devices="vehroute_flow_3_phase1_N_right.0 tripinfo_flow_3_phase1_N_right.0" vType="car" speedFactor="1.09" vaporized=""/>
    <tripinfo id="flow_6_phase1_S_left.0" depart="0.00" departLane="S_in_1" departPos="166.01" departSpeed="0.74" departDelay="0.00" arrival="25.00" arrivalLane="W_out_1" arrivalPos="189.60" arrivalSpeed="11.97" duration="25.00" routeLength="232.54" waitingTime="0.00" waitingCount="0" stopTime="0.00" timeLoss="4.28" rerouteNo="0" devices="vehroute_flow_6_phase1_S_left.0 tripinfo_flow_6_phase1_S_left.0" vType="moto" speedFactor="0.88" vaporized=""/>
    <tripinfo id="flow_14_phase1_W_left.0" depart="0.00" departLane="N_in_1" departPos="50.07" departSpeed="13.54" departDelay="0.00" arrival="31.00" arrivalLane="E_out_1" arrivalPos="189.60" arrivalSpeed="13.63" duration="31.00" routeLength="348.48" waitingTime="0.00" waitingCount="0" stopTime="0.00" timeLoss="5.48" rerouteNo="0" devices="vehroute_flow_14_phase1_W_left.0 tripinfo_flow_14_phase1_W_left.0" vType="moto" speedFactor="1.01" vaporized=""/>
    <tripinfo id="flow_9_phase1_E_straight.0" depart="0.00" departLane="N_in_0" departPos="168.29" departSpeed="9.83" departDelay="0.00" arrival="32.00" arrivalLane="N_out_0" arrivalPos="189.60" arrivalSpeed="12.18" duration="32.00" routeLength="215.58" waitingTime="5.00" waitingCount="1" stopTime="0.00" timeLoss="13.23" rerouteNo="0" devices="vehroute_flow_9_phase1_E_straight.0 tripinfo_flow_9_phase1_E_straight.0" vType="truck" speedFactor="0.90" vaporized=""/>
    <tripinfo id="flow_16_phase1_W_uturn.0" depart="0.00" departLane="W_in_0" departPos="126.68" departSpeed="11.71" departDelay="0.00" arrival="35.00" arrivalLane="S_out_0" arrivalPos="189.60" arrivalSpeed="13.40" duration="35.00" routeLength="261.55" waitingTime="11.00" waitingCount="1" stopTime="0.00" timeLoss="16.23" rerouteNo="0" devices="vehroute_flow_16_phase1_W_uturn.0 tripinfo_flow_16_phase1_W_uturn.0" vType="moto" speedFactor="1.04" vaporized=""/>
    <tripinfo id="flow_4_phase1_N_uturn.0" depart="0.00" departLane="W_in_1" departPos="127.60" departSpeed="0.08" departDelay="0.00" arrival="37.00" arrivalLane="E_out_0" arrivalPos="189.60" arrivalSpeed="12.26" duration="37.00" routeLength="272.40" waitingTime="7.00" waitingCount="1" stopTime="0.00" timeLoss="15.25" rerouteNo="0" devices="vehroute_flow_4_phase1_N_uturn.0 tripinfo_flow_4_phase1_N_uturn.0" vType="car" speedFactor="0.92" vaporized=""/>
    <tripinfo id="flow_2_phase1_N_left.0" depart="0.00" departLane="W_in_1" departPos="8.27" departSpeed="8.33" departDelay="0.00" arrival="38.00" arrivalLane="E_out_1" arrivalPos="189.60" arrivalSpeed="13.62" duration="38.00" routeLength="391.73" waitingTime="1.00" waitingCount="1" stopTime="0.00" timeLoss="9.72" rerouteNo="0" devices="vehroute_flow_2_phase1_N_left.0 tripinfo_flow_2_phase1_N_left.0" vType="moto" speedFactor="1.02" vaporized=""/>
    <tripinfo id="flow_11_phase1_E_right.0" depart="0.00" departLane="E_in_1" departPos="144.95" departSpeed="4.02" departDelay="0.00" arrival="39.00" arrivalLane="N_out_0" arrivalPos="189.60" arrivalSpeed="13.14" duration="39.00" routeLength="243.28" waitingTime="10.00" waitingCount="1" stopTime="0.00" timeLoss="20.08" rerouteNo="0" devices="vehroute_flow_11_phase1_E_right.0 tripinfo_flow_11_phase1_E_right.0" vType="bus" speedFactor="0.96" vaporized=""/>
    <tripinfo id="flow_13_phase1_W_straight.1" depart="14.00" departLane="W_in_1" departPos="121.65" departSpeed="2.86" departDelay="0.58" arrival="39.00" arrivalLane="E_out_1" arrivalPos="189.60" arrivalSpeed="15.02" duration="25.00" routeLength="278.35" waitingTime="0.00" waitingCount="0" stopTime="0.00" timeLoss="6.96" rerouteNo="0" devices="vehroute_flow_13_phase1_W_straight.1 tripinfo_flow_13_phase1_W_straight.1" vType="car" speedFactor="1.12" vaporized=""/>
    <tripinfo id="flow_15_phase1_W_right.0" depart="0.00" departLane="W_in_1" departPos="108.38" departSpeed="1.98" departDelay="0.00" arrival="40.00" arrivalLane="S_out_0" arrivalPos="189.60" arrivalSpeed="10.97" duration="40.00" routeLength="279.85" waitingTime="7.00" waitingCount="1" stopTime="0.00" timeLoss="14.47" rerouteNo="0" devices="vehroute_flow_15_phase1_W_right.0 tripinfo_flow_15_phase1_W_right.0" vType="moto" speedFactor="0.85" vaporized=""/>
    <tripinfo id="flow_12_phase1_E_uturn.0" depart="0.00" departLane="E_in_0" departPos="129.89" departSpeed="13.76" departDelay="0.00" arrival="43.00" arrivalLane="E_out_1" arrivalPos="189.60" arrivalSpeed="13.09" duration="43.00" routeLength="253.98" waitingTime="11.00" waitingCount="2" stopTime="0.00" timeLoss="23.87" rerouteNo="0" devices="vehroute_flow_12_phase1_E_uturn.0 tripinfo_flow_12_phase1_E_uturn.0" vType="moto" speedFactor="1.03" vaporized=""/>
    <tripinfo id="flow_1_phase1_N_straight.0" depart="0.00" departLane="E_in_0" departPos="8.62" departSpeed="8.51" departDelay="0.00" arrival="44.00" arrivalLane="W_out_0" arrivalPos="189.60" arrivalSpeed="11.56" duration="44.00" routeLength="391.38" waitingTime="1.00" waitingCount="1" stopTime="0.00" timeLoss="10.82" rerouteNo="0" devices="vehroute_flow_1_phase1_N_straight.0 tripinfo_flow_1_phase1_N_straight.0" vType="bus" speedFactor="0.86" vaporized=""/>
    <tripinfo id="flow_13_phase1_W_straight.0" depart="0.00" departLane="W_in_0" departPos="23.77" departSpeed="1.48" departDelay="0.00" arrival="44.00" arrivalLane="E_out_0" arrivalPos="189.60" arrivalSpeed="11.30" duration="44.00" routeLength="376.23" waitingTime="0.00" waitingCount="0" stopTime="0.00" timeLoss="10.29" rerouteNo="0" devices="vehroute_flow_13_phase1_W_straight.0 tripinfo_flow_13_phase1_W_straight.0" vType="container" speedFactor="0.82" vaporized=""/>
    <tripinfo id="flow_8_phase1_S_uturn.0" depart="0.00" departLane="E_in_0" departPos="120.11" departSpeed="4.48" departDelay="0.00" arrival="45.00" arrivalLane="S_out_1" arrivalPos="189.60" arrivalSpeed="14.13" duration="45.00" routeLength="278.44" waitingTime="9.00" waitingCount="2" stopTime="0.00" timeLoss="24.56" rerouteNo="0" devices="vehroute_flow_8_phase1_S_uturn.0 tripinfo_flow_8_phase1_S_uturn.0" vType="moto" speedFactor="1.05" vaporized=""/>
    <tripinfo id="flow_5_phase1_S_straight.1" depart="14.00" departLane="S_in_1" departPos="31.93" departSpeed="9.28" departDelay="0.74" arrival="48.00" arrivalLane="N_out_1" arrivalPos="189.60" arrivalSpeed="14.80" duration="34.00" routeLength="368.07" waitingTime="2.00" waitingCount="1" stopTime="0.00" timeLoss="10.19" rerouteNo="0" devices="vehroute_flow_5_phase1_S_straight.1 tripinfo_flow_5_phase1_S_straight.1" vType="moto" speedFactor="1.19" vaporized=""/>
    <tripinfo id="flow_7_phase1_S_right.0" depart="0.00" departLane="S_in_0" departPos="8.76" departSpeed="8.07" departDelay="0.00" arrival="58.00" arrivalLane="E_out_0" arrivalPos="189.60" arrivalSpeed="11.30" duration="58.00" routeLength="379.47" waitingTime="12.00" waitingCount="1" stopTime="0.00" timeLoss="24.28" rerouteNo="0" devices="vehroute_flow_7_phase1_S_right.0 tripinfo_flow_7_phase1_S_right.0" vType="container" speedFactor="0.85" vaporized=""/>
    <tripinfo id="flow_5_phase1_S_straight.2" depart="27.00" departLane="S_in_1" departPos="12.70" departSpeed="12.41" departDelay="0.48" arrival="58.00" arrivalLane="N_out_1" arrivalPos="189.60" arrivalSpeed="13.26" duration="31.00" routeLength="387.30" waitingTime="0.00" waitingCount="0" stopTime="0.00" timeLoss="1.21" rerouteNo="0" devices="vehroute_flow_5_phase1_S_straight.2 tripinfo_flow_5_phase1_S_straight.2" vType="moto" speedFactor="0.96" vaporized=""/>
    <tripinfo id="flow_9_phase1_E_straight.1" depart="13.00" departLane="N_in_0" departPos="131.13" departSpeed="9.54" departDelay="0.09" arrival="59.00" arrivalLane="N_out_1" arrivalPos="189.60" arrivalSpeed="14.98" duration="46.00" routeLength="252.74" waitingTime="18.00" waitingCount="2" stopTime="0.00" timeLoss="29.39" rerouteNo="0" devices="vehroute_flow_9_phase1_E_straight.1 tripinfo_flow_9_phase1_E_straight.1" vType="moto" speedFactor="1.16" vaporized=""/>
    <tripinfo id="flow_3_phase1_N_right.1" depart="35.00" departLane="S_in_0" departPos="166.00" departSpeed="1.28" departDelay="0.74" arrival="59.00" arrivalLane="E_out_1" arrivalPos="189.60" arrivalSpeed="11.62" duration="24.00" routeLength="222.23" waitingTime="0.00" waitingCount="0" stopTime="0.00" timeLoss="4.81" rerouteNo="0" devices="vehroute_flow_3_phase1_N_right.1 tripinfo_flow_3_phase1_N_right.1" vType="moto" speedFactor="0.88" vaporized=""/>
    <tripinfo id="flow_15_phase1_W_right.1" depart="33.00" departLane="W_in_0" departPos="73.90" departSpeed="9.22" departDelay="0.08" arrival="60.00" arrivalLane="S_out_0" arrivalPos="189.60" arrivalSpeed="14.20" duration="27.00" routeLength="314.33" waitingTime="0.00" waitingCount="0" stopTime="0.00" timeLoss="5.13" rerouteNo="0" devices="vehroute_flow_15_phase1_W_right.1 tripinfo_flow_15_phase1_W_right.1" vType="moto" speedFactor="1.08" vaporized=""/>
    <tripinfo id="flow_2_phase1_N_left.1" depart="33.00" departLane="W_in_0" departPos="8.88" departSpeed="2.82" departDelay="0.24" arrival="62.00" arrivalLane="E_out_0" arrivalPos="189.60" arrivalSpeed="14.62" duration="29.00" routeLength="391.12" waitingTime="0.00" waitingCount="0" stopTime="0.00" timeLoss="3.21" rerouteNo="0" devices="vehroute_flow_2_phase1_N_left.1 tripinfo_flow_2_phase1_N_left.1" vType="moto" speedFactor="1.12" vaporized=""/>
    <tripinfo id="flow_11_phase1_E_right.1" depart="33.00" departLane="E_in_1" departPos="128.68" departSpeed="3.06" departDelay="0.43" arrival="62.00" arrivalLane="N_out_0" arrivalPos="189.60" arrivalSpeed="14.38" duration="29.00" routeLength="259.55" waitingTime="3.00" waitingCount="1" stopTime="0.00" timeLoss="9.95" rerouteNo="0" devices="vehroute_flow_11_phase1_E_right.1 tripinfo_flow_11_phase1_E_right.1" vType="moto" speedFactor="1.04" vaporized=""/>
    <tripinfo id="flow_1_phase1_N_straight.1" depart="14.00" departLane="E_in_1" departPos="58.36" departSpeed="11.64" departDelay="0.45" arrival="64.00" arrivalLane="W_out_0" arrivalPos="189.60" arrivalSpeed="11.85" duration="50.00" routeLength="341.64" waitingTime="10.00" waitingCount="1" stopTime="0.00" timeLoss="21.48" rerouteNo="0" devices="vehroute_flow_1_phase1_N_straight.1 tripinfo_flow_1_phase1_N_straight.1" vType="moto" speedFactor="0.87" vaporized=""/>
    <tripinfo id="flow_1_phase1_N_straight.2" depart="28.00" departLane="E_in_1" departPos="107.53" departSpeed="1.11" departDelay="0.90" arrival="66.00" arrivalLane="W_out_0" arrivalPos="189.60" arrivalSpeed="11.94" duration="38.00" routeLength="292.47" waitingTime="3.00" waitingCount="2" stopTime="0.00" timeLoss="15.20" rerouteNo="0" devices="vehroute_flow_1_phase1_N_straight.2 tripinfo_flow_1_phase1_N_straight.2" vType="moto" speedFactor="0.93" vaporized=""/>
    <tripinfo id="flow_13_phase1_W_straight.2" depart="27.00" departLane="W_in_1" departPos="59.51" departSpeed="13.32" departDelay="0.17" arrival="67.00" arrivalLane="E_out_0" arrivalPos="189.60" arrivalSpeed="13.06" duration="40.00" routeLength="340.49" waitingTime="3.00" waitingCount="1" stopTime="0.00" timeLoss="13.94" rerouteNo="0" devices="vehroute_flow_13_phase1_W_straight.2 tripinfo_flow_13_phase1_W_straight.2" vType="bus" speedFactor="0.97" vaporized=""/>
    <tripinfo id="flow_1_phase1_N_straight.3" depart="41.00" departLane="E_in_0" departPos="65.01" departSpeed="6.58" departDelay="0.35" arrival="68.00" arrivalLane="W_out_0" arrivalPos="189.60" arrivalSpeed="15.03" duration="27.00" routeLength="334.99" waitingTime="0.00" waitingCount="0" stopTime="0.00" timeLoss="5.32" rerouteNo="0" devices="vehroute_flow_1_phase1_N_straight.3 tripinfo_flow_1_phase1_N_straight.3" vType="moto" speedFactor="1.20" vaporized=""/>
    <tripinfo id="flow_13_phase1_W_straight.3" depart="41.00" departLane="W_in_1" departPos="88.42" departSpeed="1.48" departDelay="0.75" arrival="68.00" arrivalLane="E_out_1" arrivalPos="189.60" arrivalSpeed="14.46" duration="27.00" routeLength="311.58" waitingTime="0.00" waitingCount="0" stopTime="0.00" timeLoss="5.43" rerouteNo="0" devices="vehroute_flow_13_phase1_W_straight.3 tripinfo_flow_13_phase1_W_straight.3" vType="car" speedFactor="1.05" vaporized=""/>
    <tripinfo id="flow_5_phase1_S_straight.3" depart="40.00" departLane="S_in_0" departPos="184.19" departSpeed="8.58" departDelay="0.22" arrival="74.00" arrivalLane="N_out_0" arrivalPos="189.60" arrivalSpeed="14.39" duration="34.00" routeLength="215.81" waitingTime="14.00" waitingCount="1" stopTime="0.00" timeLoss="19.32" rerouteNo="0" devices="vehroute_flow_5_phase1_S_straight.3 tripinfo_flow_5_phase1_S_straight.3" vType="moto" speedFactor="1.08" vaporized=""/>
    <tripinfo id="flow_10_phase1_E_left.0" depart="0.00" departLane="E_in_0" departPos="44.88" departSpeed="7.69" departDelay="0.00" arrival="75.00" arrivalLane="E_out_1" arrivalPos="189.60" arrivalSpeed="13.41" duration="75.00" routeLength="338.99" waitingTime="27.00" waitingCount="4" stopTime="0.00" timeLoss="49.77" rerouteNo="0" devices="vehroute_flow_10_phase1_E_left.0 tripinfo_flow_10_phase1_E_left.0" vType="truck" speedFactor="1.02" vaporized=""/>
    <tripinfo id="flow_9_phase1_E_straight.2" depart="26.00" departLane="N_in_1" departPos="52.87" departSpeed="0.38" departDelay="0.18" arrival="75.00" arrivalLane="N_out_1" arrivalPos="189.60" arrivalSpeed="13.12" duration="49.00" routeLength="331.00" waitingTime="13.00" waitingCount="2" stopTime="0.00" timeLoss="23.67" rerouteNo="0" devices="vehroute_flow_9_phase1_E_straight.2 tripinfo_flow_9_phase1_E_straight.2" vType="moto" speedFactor="0.99" vaporized=""/>
    <tripinfo id="flow_6_phase1_S_left.1" depart="34.00" departLane="S_in_1" departPos="79.10" departSpeed="11.99" departDelay="0.47" arrival="75.00" arrivalLane="W_out_1" arrivalPos="189.60" arrivalSpeed="13.93" duration="41.00" routeLength="319.45" waitingTime="11.00" waitingCount="1" stopTime="0.00" timeLoss="17.58" rerouteNo="0" devices="vehroute_flow_6_phase1_S_left.1 tripinfo_flow_6_phase1_S_left.1" vType="moto" speedFactor="1.05" vaporized=""/>
    <tripinfo id="flow_5_phase1_S_straight.4" depart="54.00" departLane="S_in_0" departPos="135.24" departSpeed="1.68" departDelay="0.96" arrival="84.00" arrivalLane="N_out_1" arrivalPos="189.60" arrivalSpeed="12.90" duration="30.00" routeLength="264.76" waitingTime="0.00" waitingCount="0" stopTime="0.00" timeLoss="9.54" rerouteNo="0" devices="vehroute_flow_5_phase1_S_straight.4 tripinfo_flow_5_phase1_S_straight.4" vType="container" speedFactor="0.97" vaporized=""/>
    <tripinfo id="flow_7_phase1_S_right.1" depart="33.00" departLane="S_in_1" departPos="66.71" departSpeed="7.87" departDelay="0.43" arrival="86.00" arrivalLane="E_out_0" arrivalPos="189.60" arrivalSpeed="10.77" duration="53.00" routeLength="321.52" waitingTime="9.00" waitingCount="1" stopTime="0.00" timeLoss="22.16" rerouteNo="0" devices="vehroute_flow_7_phase1_S_right.1 tripinfo_flow_7_phase1_S_right.1" vType="container" speedFactor="0.78" vaporized=""/>
    <tripinfo id="flow_13_phase1_W_straight.4" depart="54.00" departLane="W_in_0" departPos="70.46" departSpeed="10.65" departDelay="0.34" arrival="94.00" arrivalLane="E_out_0" arrivalPos="189.60" arrivalSpeed="11.95" duration="40.00" routeLength="329.54" waitingTime="2.00" waitingCount="1" stopTime="0.00" timeLoss="12.52" rerouteNo="0" devices="vehroute_flow_13_phase1_W_straight.4 tripinfo_flow_13_phase1_W_straight.4" vType="bus" speedFactor="0.87" vaporized=""/>
    <tripinfo id="flow_14_phase1_W_left.1" depart="35.00" departLane="N_in_0" departPos="93.41" departSpeed="11.76" departDelay="0.45" arrival="96.00" arrivalLane="E_out_1" arrivalPos="189.60" arrivalSpeed="12.49" duration="61.00" routeLength="305.14" waitingTime="15.00" waitingCount="2" stopTime="0.00" timeLoss="35.32" rerouteNo="0" devices="vehroute_flow_14_phase1_W_left.1 tripinfo_flow_14_phase1_W_left.1" vType="container" speedFactor="0.91" vaporized=""/>
    <tripinfo id="flow_2_phase1_N_left.2" depart="66.00" departLane="W_in_0" departPos="125.76" departSpeed="4.77" departDelay="0.48" arrival="96.00" arrivalLane="E_out_0" arrivalPos="189.60" arrivalSpeed="13.76" duration="30.00" routeLength="274.24" waitingTime="0.00" waitingCount="0" stopTime="0.00" timeLoss="10.04" rerouteNo="0" devices="vehroute_flow_2_phase1_N_left.2 tripinfo_flow_2_phase1_N_left.2" vType="moto" speedFactor="1.00" vaporized=""/>
    <tripinfo id="flow_15_phase1_W_right.2" depart="66.00" departLane="W_in_0" departPos="104.14" departSpeed="10.83" departDelay="0.17" arrival="96.00" arrivalLane="S_out_0" arrivalPos="189.60" arrivalSpeed="12.29" duration="30.00" routeLength="284.09" waitingTime="0.00" waitingCount="0" stopTime="0.00" timeLoss="6.96" rerouteNo="0" devices="vehroute_flow_15_phase1_W_right.2 tripinfo_flow_15_phase1_W_right.2" vType="moto" speedFactor="0.95" vaporized=""/>
    <tripinfo id="flow_4_phase1_N_uturn.1" depart="67.00" departLane="W_in_1" departPos="168.21" departSpeed="11.63" departDelay="0.80" arrival="99.00" arrivalLane="E_out_1" arrivalPos="189.60" arrivalSpeed="11.49" duration="32.00" routeLength="231.79" waitingTime="3.00" waitingCount="1" stopTime="0.00" timeLoss="12.41" rerouteNo="0" devices="vehroute_flow_4_phase1_N_uturn.1 tripinfo_flow_4_phase1_N_uturn.1" vType="moto" speedFactor="0.89" vaporized=""/>
    <tripinfo id="flow_6_phase1_S_left.2" depart="68.00" departLane="S_in_1" departPos="21.68" departSpeed="6.53" departDelay="0.94" arrival="99.00" arrivalLane="W_out_1" arrivalPos="189.60" arrivalSpeed="15.09" duration="31.00" routeLength="376.87" waitingTime="0.00" waitingCount="0" stopTime="0.00" timeLoss="5.95" rerouteNo="0" devices="vehroute_flow_6_phase1_S_left.2 tripinfo_flow_6_phase1_S_left.2" vType="moto" speedFactor="1.14" vaporized=""/>
    <tripinfo id="flow_7_phase1_S_right.2" depart="66.00" departLane="S_in_0" departPos="52.57" departSpeed="9.36" departDelay="0.86" arrival="100.00" arrivalLane="E_out_0" arrivalPos="189.60" arrivalSpeed="15.26" duration="34.00" routeLength="335.66" waitingTime="4.00" waitingCount="1" stopTime="0.00" timeLoss="11.34" rerouteNo="0" devices="vehroute_flow_7_phase1_S_right.2 tripinfo_flow_7_phase1_S_right.2" vType="moto" speedFactor="1.14" vaporized=""/>
    <tripinfo id="flow_13_phase1_W_straight.5" depart="68.00" departLane="W_in_1" departPos="148.65" departSpeed="6.11" departDelay="0.92" arrival="100.00" arrivalLane="E_out_1" arrivalPos="189.60" arrivalSpeed="11.93" duration="32.00" routeLength="251.35" waitingTime="0.00" waitingCount="0" stopTime="0.00" timeLoss="11.56" rerouteNo="0" devices="vehroute_flow_13_phase1_W_straight.5 tripinfo_flow_13_phase1_W_straight.5" vType="moto" speedFactor="0.90" vaporized=""/>
    <tripinfo id="flow_1_phase1_N_straight.4" depart="55.00" departLane="E_in_1" departPos="74.07" departSpeed="0.54" departDelay="0.80" arrival="101.00" arrivalLane="W_out_0" arrivalPos="189.60" arrivalSpeed="12.59" duration="46.00" routeLength="325.93" waitingTime="4.00" waitingCount="1" stopTime="0.00" timeLoss="20.38" rerouteNo="0" devices="vehroute_flow_1_phase1_N_straight.4 tripinfo_flow_1_phase1_N_straight.4" vType="truck" speedFactor="0.92" vaporized=""/>
    <tripinfo id="flow_3_phase1_N_right.2" depart="69.00" departLane="S_in_0" departPos="39.34" departSpeed="12.45" departDelay="0.47" arrival="101.00" arrivalLane="E_out_0" arrivalPos="189.60" arrivalSpeed="14.90" duration="32.00" routeLength="348.89" waitingTime="0.00" waitingCount="0" stopTime="0.00" timeLoss="8.78" rerouteNo="0" devices="vehroute_flow_3_phase1_N_right.2 tripinfo_flow_3_phase1_N_right.2" vType="moto" speedFactor="1.10" vaporized=""/>
    <tripinfo id="flow_5_phase1_S_straight.5" depart="67.00" departLane="S_in_0" departPos="31.76" departSpeed="11.77" departDelay="0.70" arrival="104.00" arrivalLane="N_out_1" arrivalPos="189.60" arrivalSpeed="12.44" duration="37.00" routeLength="368.24" waitingTime="1.00" waitingCount="1" stopTime="0.00" timeLoss="8.07" rerouteNo="0" devices="vehroute_flow_5_phase1_S_straight.5 tripinfo_flow_5_phase1_S_straight.5" vType="moto" speedFactor="0.94" vaporized=""/>
    <tripinfo id="flow_5_phase1_S_straight.6" depart="80.00" departLane="S_in_1" departPos="109.89" departSpeed="2.41" departDelay="0.43" arrival="105.00" arrivalLane="N_out_1" arrivalPos="189.60" arrivalSpeed="13.75" duration="25.00" routeLength="290.11" waitingTime="0.00" waitingCount="0" stopTime="0.00" timeLoss="5.72" rerouteNo="0" devices="vehroute_flow_5_phase1_S_straight.6 tripinfo_flow_5_phase1_S_straight.6" vType="moto" speedFactor="1.10" vaporized=""/>
    <tripinfo id="flow_10_phase1_E_left.1" depart="34.00" departLane="E_in_0" departPos="4.52" departSpeed="10.41" departDelay="0.42" arrival="106.00" arrivalLane="E_out_0" arrivalPos="189.60" arrivalSpeed="10.11" duration="72.00" routeLength="379.35" waitingTime="19.00" waitingCount="3" stopTime="0.00" timeLoss="35.32" rerouteNo="0" devices="vehroute_flow_10_phase1_E_left.1 tripinfo_flow_10_phase1_E_left.1" vType="truck" speedFactor="0.77" vaporized=""/>
    <tripinfo id="flow_11_phase1_E_right.2" depart="66.00" departLane="E_in_1" departPos="112.37" departSpeed="10.40" departDelay="0.87" arrival="112.00" arrivalLane="N_out_0" arrivalPos="189.60" arrivalSpeed="15.18" duration="46.00" routeLength="275.86" waitingTime="17.00" waitingCount="2" stopTime="0.00" timeLoss="26.54" rerouteNo="0" devices="vehroute_flow_11_phase1_E_right.2 tripinfo_flow_11_phase1_E_right.2" vType="emergency" speedFactor="1.10" vaporized=""/>
    <tripinfo id="flow_9_phase1_E_straight.3" depart="39.00" departLane="N_in_0" departPos="86.42" departSpeed="8.41" departDelay="0.28" arrival="113.00" arrivalLane="N_out_1" arrivalPos="189.60" arrivalSpeed="11.67" duration="74.00" routeLength="297.45" waitingTime="21.00" waitingCount="5" stopTime="0.00" timeLoss="46.84" rerouteNo="0" devices="vehroute_flow_9_phase1_E_straight.3 tripinfo_flow_9_phase1_E_straight.3" vType="bus" speedFactor="0.85" vaporized=""/>
    <tripinfo id="flow_13_phase1_W_straight.6" depart="81.00" departLane="W_in_1" departPos="21.74" departSpeed="10.71" departDelay="0.50" arrival="113.00" arrivalLane="E_out_1" arrivalPos="189.60" arrivalSpeed="13.31" duration="32.00" routeLength="378.26" waitingTime="0.00" waitingCount="0" stopTime="0.00" timeLoss="3.56" rerouteNo="0" devices="vehroute_flow_13_phase1_W_straight.6 tripinfo_flow_13_phase1_W_straight.6" vType="car" speedFactor="0.98" vaporized=""/>
    <tripinfo id="flow_1_phase1_N_straight.5" depart="68.00" departLane="E_in_1" departPos="92.22" departSpeed="0.17" departDelay="0.26" arrival="115.00" arrivalLane="W_out_0" arrivalPos="189.60" arrivalSpeed="14.14" duration="47.00" routeLength="307.78" waitingTime="13.00" waitingCount="1" stopTime="0.00" timeLoss="26.01" rerouteNo="0" devices="vehroute_flow_1_phase1_N_straight.5 tripinfo_flow_1_phase1_N_straight.5" vType="moto" speedFactor="1.07" vaporized=""/>
    <tripinfo id="flow_16_phase1_W_uturn.1" depart="67.00" departLane="W_in_1" departPos="124.88" departSpeed="0.01" departDelay="0.64" arrival="118.00" arrivalLane="S_out_0" arrivalPos="189.60" arrivalSpeed="12.36" duration="51.00" routeLength="263.35" waitingTime="13.00" waitingCount="1" stopTime="0.00" timeLoss="28.30" rerouteNo="0" devices="vehroute_flow_16_phase1_W_uturn.1 tripinfo_flow_16_phase1_W_uturn.1" vType="truck" speedFactor="0.89" vaporized=""/>
    <tripinfo id="flow_1_phase1_N_straight.6" depart="82.00" departLane="E_in_0" departPos="43.18" departSpeed="3.08" departDelay="0.71" arrival="118.00" arrivalLane="W_out_0" arrivalPos="189.60" arrivalSpeed="12.69" duration="36.00" routeLength="356.82" waitingTime="1.00" waitingCount="1" stopTime="0.00" timeLoss="9.33" rerouteNo="0" devices="vehroute_flow_1_phase1_N_straight.6 tripinfo_flow_1_phase1_N_straight.6" vType="car" speedFactor="0.98" vaporized=""/>
    <tripinfo id="flow_13_phase1_W_straight.7" depart="94.00" departLane="W_in_0" departPos="178.36" departSpeed="1.74" departDelay="0.09" arrival="119.00" arrivalLane="E_out_0" arrivalPos="189.60" arrivalSpeed="10.62" duration="25.00" routeLength="221.64" waitingTime="0.00" waitingCount="0" stopTime="0.00" timeLoss="4.58" rerouteNo="0" devices="vehroute_flow_13_phase1_W_straight.7 tripinfo_flow_13_phase1_W_straight.7" vType="moto" speedFactor="0.80" vaporized=""/>
    <tripinfo id="flow_11_phase1_E_right.3" depart="98.00" departLane="E_in_1" departPos="142.12" departSpeed="0.40" departDelay="0.30" arrival="125.00" arrivalLane="N_out_0" arrivalPos="189.60" arrivalSpeed="11.28" duration="27.00" routeLength="246.11" waitingTime="0.00" waitingCount="0" stopTime="0.00" timeLoss="4.86" rerouteNo="0" devices="vehroute_flow_11_phase1_E_right.3 tripinfo_flow_11_phase1_E_right.3" vType="moto" speedFactor="0.83" vaporized=""/>
    <tripinfo id="flow_6_phase1_S_left.3" depart="101.00" departLane="S_in_0" departPos="150.32" departSpeed="6.56" departDelay="0.40" arrival="126.00" arrivalLane="W_out_1" arrivalPos="189.60" arrivalSpeed="14.93" duration="25.00" routeLength="248.23" waitingTime="1.00" waitingCount="1" stopTime="0.00" timeLoss="7.82" rerouteNo="0" devices="vehroute_flow_6_phase1_S_left.3 tripinfo_flow_6_phase1_S_left.3" vType="car" speedFactor="1.10" vaporized=""/>
    <tripinfo id="flow_5_phase1_S_straight.8" depart="107.00" departLane="S_in_0" departPos="173.60" departSpeed="1.49" departDelay="0.91" arrival="126.00" arrivalLane="N_out_1" arrivalPos="189.60" arrivalSpeed="15.52" duration="19.00" routeLength="226.40" waitingTime="0.00" waitingCount="0" stopTime="0.00" timeLoss="4.51" rerouteNo="0" devices="vehroute_flow_5_phase1_S_straight.8 tripinfo_flow_5_phase1_S_straight.8" vType="emergency" speedFactor="1.14" vaporized=""/>
    <tripinfo id="flow_12_phase1_E_uturn.1" depart="66.00" departLane="E_in_1" departPos="162.40" departSpeed="1.34" departDelay="0.03" arrival="128.00" arrivalLane="E_out_1" arrivalPos="189.60" arrivalSpeed="12.45" duration="62.00" routeLength="221.47" waitingTime="21.00" waitingCount="3" stopTime="0.00" timeLoss="43.02" rerouteNo="0" devices="vehroute_flow_12_phase1_E_uturn.1 tripinfo_flow_12_phase1_E_uturn.1" vType="truck" speedFactor="0.94" vaporized=""/>
    <tripinfo id="flow_7_phase1_S_right.3" depart="98.00" departLane="S_in_0" departPos="16.04" departSpeed="5.99" departDelay="0.28" arrival="131.00" arrivalLane="E_out_0" arrivalPos="189.60" arrivalSpeed="14.55" duration="33.00" routeLength="372.19" waitingTime="0.00" waitingCount="0" stopTime="0.00" timeLoss="6.66" rerouteNo="0" devices="vehroute_flow_7_phase1_S_right.3 tripinfo_flow_7_phase1_S_right.3" vType="moto" speedFactor="1.07" vaporized=""/>
    <tripinfo id="flow_5_phase1_S_straight.7" depart="93.00" departLane="S_in_1" departPos="88.32" departSpeed="10.69" departDelay="0.17" arrival="132.00" arrivalLane="N_out_0" arrivalPos="189.60" arrivalSpeed="12.43" duration="39.00" routeLength="311.68" waitingTime="4.00" waitingCount="1" stopTime="0.00" timeLoss="13.58" rerouteNo="0" devices="vehroute_flow_5_phase1_S_straight.7 tripinfo_flow_5_phase1_S_straight.7" vType="bus" speedFactor="0.90" vaporized=""/>
    <tripinfo id="flow_9_phase1_E_straight.4" depart="52.00" departLane="N_in_1" departPos="53.32" departSpeed="10.34" departDelay="0.37" arrival="136.00" arrivalLane="N_out_1" arrivalPos="189.60" arrivalSpeed="12.63" duration="84.00" routeLength="330.55" waitingTime="23.00" waitingCount="5" stopTime="0.00" timeLoss="57.87" rerouteNo="0" devices="vehroute_flow_9_phase1_E_straight.4 tripinfo_flow_9_phase1_E_straight.4" vType="bus" speedFactor="0.95" vaporized=""/>
    <tripinfo id="flow_3_phase1_N_right.3" depart="103.00" departLane="S_in_1" departPos="20.79" departSpeed="5.27" departDelay="0.21" arrival="136.00" arrivalLane="E_out_0" arrivalPos="189.60" arrivalSpeed="13.10" duration="33.00" routeLength="367.44" waitingTime="0.00" waitingCount="0" stopTime="0.00" timeLoss="4.40" rerouteNo="0" devices="vehroute_flow_3_phase1_N_right.3 tripinfo_flow_3_phase1_N_right.3" vType="moto" speedFactor="0.96" vaporized=""/>