<?xml version="1.0" encoding="UTF-8"?>

<!-- generated on 2025-12-12 07:57:58 by Eclipse SUMO sumo Version 1.18.0
<configuration xmlns:xsi="http://www.w3.org/2001/XMLSchema-instance" xsi:noNamespaceSchemaLocation="http://sumo.dlr.de/xsd/sumoConfiguration.xsd">

    <input>
        <net-file value="/workspace/nets/60p2k/net.net.xml"/>
        <route-files value="/workspace/nets/60p2k/route_temp_184_136390791920128_51269849.rou.xml"/>
    </input>

    <output>
        <summary-output value="../result_random/60p2k_e/llirl/summary_ep_2.xml"/>
        <tripinfo-output value="../result_random/60p2k_e/llirl/tripinfo_ep_2.xml"/>
        <vehroute-output value="../result_random/60p2k_e/llirl/vehroute_ep_2.xml"/>
    </output>

    <time>
        <begin value="0"/>
    </time>

    <report>
        <verbose value="true"/>
        <no-step-log value="true"/>
    </report>

    <traci_server>
        <remote-port value="38707"/>
    </traci_server>

    <gui_only>
        <gui-settings-file value="/workspace/nets/60p2k/gui-settings.xml"/>
        <quit-on-end value="true"/>
    </gui_only>

</configuration>
-->

<tripinfos xmlns:xsi="http://www.w3.org/2001/XMLSchema-instance" xsi:noNamespaceSchemaLocation="http://sumo.dlr.de/xsd/tripinfo_file.xsd">
    <tripinfo id="flow_8_phase1_S_uturn.0" depart="0.00" departLane="S_in_0" departPos="156.29" departSpeed="13.71" departDelay="0.00" arrival="21.00" arrivalLane="S_out_1" arrivalPos="189.60" arrivalSpeed="13.35" duration="21.00" routeLength="227.58" waitingTime="0.00" waitingCount="0" stopTime="0.00" timeLoss="3.69" rerouteNo="0" devices="vehroute_flow_8_phase1_S_uturn.0 tripinfo_flow_8_phase1_S_uturn.0" vType="moto" speedFactor="1.05" vaporized=""/>
    <tripinfo id="flow_5_phase1_S_straight.0" depart="0.00" departLane="S_in_1" departPos="107.37" departSpeed="7.21" departDelay="0.00" arrival="22.00" arrivalLane="N_out_1" arrivalPos="189.60" arrivalSpeed="15.92" duration="22.00" routeLength="292.63" waitingTime="0.00" waitingCount="0" stopTime="0.00" timeLoss="3.35" rerouteNo="0" devices="vehroute_flow_5_phase1_S_straight.0 tripinfo_flow_5_phase1_S_straight.0" vType="moto" speedFactor="1.15" vaporized=""/>
    <tripinfo id="flow_3_phase1_N_right.0" depart="0.00" departLane="N_in_0" departPos="103.38" departSpeed="3.75" departDelay="0.00" arrival="24.00" arrivalLane="W_out_0" arrivalPos="189.60" arrivalSpeed="14.93" duration="24.00" routeLength="284.85" waitingTime="0.00" waitingCount="0" stopTime="0.00" timeLoss="4.37" rerouteNo="0" devices="vehroute_flow_3_phase1_N_right.0 tripinfo_flow_3_phase1_N_right.0" vType="car" speedFactor="1.09" vaporized=""/>
    <tripinfo id="flow_6_phase1_S_left.0" depart="0.00" departLane="S_in_1" departPos="166.01" departSpeed="0.74" departDelay="0.00" arrival="26.00" arrivalLane="W_out_1" arrivalPos="189.60" arrivalSpeed="11.97" duration="26.00" routeLength="232.54" waitingTime="0.00" waitingCount="0" stopTime="0.00" timeLoss="5.43" rerouteNo="0" devices="vehroute_flow_6_phase1_S_left.0 tripinfo_flow_6_phase1_S_left.0" vType="moto" speedFactor="0.88" vaporized=""/>
    <tripinfo id="flow_4_phase1_N_uturn.0" depart="0.00" departLane="N_in_1" departPos="127.60" departSpeed="0.08" departDelay="0.00" arrival="29.00" arrivalLane="N_out_1" arrivalPos="189.60" arrivalSpeed="12.83" duration="29.00" routeLength="256.27" waitingTime="0.00" waitingCount="0" stopTime="0.00" timeLoss="7.83" rerouteNo="0" devices="vehroute_flow_4_phase1_N_uturn.0 tripinfo_flow_4_phase1_N_uturn.0" vType="car" speedFactor="0.92" vaporized=""/>
    <tripinfo id="flow_2_phase1_N_left.0" depart="0.00" departLane="N_in_1" departPos="8.27" departSpeed="8.33" departDelay="0.00" arrival="31.00" arrivalLane="E_out_1" arrivalPos="189.60" arrivalSpeed="13.94" duration="31.00" routeLength="390.28" waitingTime="0.00" waitingCount="0" stopTime="0.00" timeLoss="2.66" rerouteNo="0" devices="vehroute_flow_2_phase1_N_left.0 tripinfo_flow_2_phase1_N_left.0" vType="moto" speedFactor="1.02" vaporized=""/>
    <tripinfo id="flow_7_phase1_S_right.0" depart="0.00" departLane="N_in_0" departPos="58.22" departSpeed="8.07" departDelay="0.00" arrival="31.00" arrivalLane="S_out_0" arrivalPos="189.60" arrivalSpeed="11.55" duration="31.00" routeLength="341.78" waitingTime="0.00" waitingCount="0" stopTime="0.00" timeLoss="1.58" rerouteNo="0" devices="vehroute_flow_7_phase1_S_right.0 tripinfo_flow_7_phase1_S_right.0" vType="container" speedFactor="0.85" vaporized=""/>
    <tripinfo id="flow_9_phase1_E_straight.0" depart="0.00" departLane="E_in_1" departPos="103.20" departSpeed="4.96" departDelay="0.00" arrival="41.00" arrivalLane="W_out_0" arrivalPos="189.60" arrivalSpeed="12.01" duration="41.00" routeLength="296.80" waitingTime="6.00" waitingCount="1" stopTime="0.00" timeLoss="16.56" rerouteNo="0" devices="vehroute_flow_9_phase1_E_straight.0 tripinfo_flow_9_phase1_E_straight.0" vType="truck" speedFactor="0.90" vaporized=""/>
    <tripinfo id="flow_11_phase1_E_right.0" depart="0.00" departLane="W_in_0" departPos="181.37" departSpeed="2.12" departDelay="0.00" arrival="42.00" arrivalLane="E_out_0" arrivalPos="189.60" arrivalSpeed="12.72" duration="42.00" routeLength="218.63" waitingTime="14.00" waitingCount="1" stopTime="0.00" timeLoss="24.65" rerouteNo="0" devices="vehroute_flow_11_phase1_E_right.0 tripinfo_flow_11_phase1_E_right.0" vType="bus" speedFactor="0.96" vaporized=""/>
    <tripinfo id="flow_9_phase1_E_straight.1" depart="13.00" departLane="E_in_1" departPos="58.36" departSpeed="11.07" departDelay="0.09" arrival="43.00" arrivalLane="W_out_0" arrivalPos="189.60" arrivalSpeed="15.00" duration="30.00" routeLength="341.64" waitingTime="0.00" waitingCount="0" stopTime="0.00" timeLoss="7.73" rerouteNo="0" devices="vehroute_flow_9_phase1_E_straight.1 tripinfo_flow_9_phase1_E_straight.1" vType="moto" speedFactor="1.16" vaporized=""/>
    <tripinfo id="flow_12_phase1_E_uturn.0" depart="0.00" departLane="E_in_1" departPos="62.82" departSpeed="9.85" departDelay="0.00" arrival="44.00" arrivalLane="E_out_1" arrivalPos="189.60" arrivalSpeed="14.27" duration="44.00" routeLength="321.05" waitingTime="8.00" waitingCount="2" stopTime="0.00" timeLoss="20.06" rerouteNo="0" devices="vehroute_flow_12_phase1_E_uturn.0 tripinfo_flow_12_phase1_E_uturn.0" vType="moto" speedFactor="1.03" vaporized=""/>
    <tripinfo id="flow_15_phase1_W_right.0" depart="0.00" departLane="W_in_1" departPos="153.90" departSpeed="6.73" departDelay="0.00" arrival="44.00" arrivalLane="S_out_0" arrivalPos="189.60" arrivalSpeed="11.32" duration="44.00" routeLength="234.33" waitingTime="12.00" waitingCount="1" stopTime="0.00" timeLoss="22.40" rerouteNo="0" devices="vehroute_flow_15_phase1_W_right.0 tripinfo_flow_15_phase1_W_right.0" vType="moto" speedFactor="0.85" vaporized=""/>
    <tripinfo id="flow_16_phase1_W_uturn.0" depart="0.00" departLane="W_in_0" departPos="135.67" departSpeed="9.64" departDelay="0.00" arrival="45.00" arrivalLane="S_out_0" arrivalPos="189.60" arrivalSpeed="13.01" duration="45.00" routeLength="252.56" waitingTime="12.00" waitingCount="1" stopTime="0.00" timeLoss="26.35" rerouteNo="0" devices="vehroute_flow_16_phase1_W_uturn.0 tripinfo_flow_16_phase1_W_uturn.0" vType="moto" speedFactor="1.04" vaporized=""/>
    <tripinfo id="flow_14_phase1_W_left.0" depart="0.00" departLane="W_in_1" departPos="42.31" departSpeed="3.71" departDelay="0.00" arrival="46.00" arrivalLane="N_out_1" arrivalPos="189.60" arrivalSpeed="13.32" duration="46.00" routeLength="356.24" waitingTime="7.00" waitingCount="2" stopTime="0.00" timeLoss="19.42" rerouteNo="0" devices="vehroute_flow_14_phase1_W_left.0 tripinfo_flow_14_phase1_W_left.0" vType="moto" speedFactor="1.01" vaporized=""/>
    <tripinfo id="flow_5_phase1_S_straight.1" depart="14.00" departLane="S_in_1" departPos="121.65" departSpeed="2.93" departDelay="0.74" arrival="47.00" arrivalLane="N_out_0" arrivalPos="189.60" arrivalSpeed="15.48" duration="33.00" routeLength="278.35" waitingTime="6.00" waitingCount="1" stopTime="0.00" timeLoss="15.24" rerouteNo="0" devices="vehroute_flow_5_phase1_S_straight.1 tripinfo_flow_5_phase1_S_straight.1" vType="moto" speedFactor="1.19" vaporized=""/>
    <tripinfo id="flow_1_phase1_N_straight.1" depart="14.00" departLane="N_in_1" departPos="31.93" departSpeed="7.04" departDelay="0.45" arrival="51.00" arrivalLane="S_out_0" arrivalPos="189.60" arrivalSpeed="11.43" duration="37.00" routeLength="368.07" waitingTime="0.00" waitingCount="0" stopTime="0.00" timeLoss="5.92" rerouteNo="0" devices="vehroute_flow_1_phase1_N_straight.1 tripinfo_flow_1_phase1_N_straight.1" vType="moto" speedFactor="0.87" vaporized=""/>
    <tripinfo id="flow_1_phase1_N_straight.0" depart="0.00" departLane="N_in_0" departPos="8.62" departSpeed="8.51" departDelay="0.00" arrival="55.00" arrivalLane="S_out_0" arrivalPos="189.60" arrivalSpeed="11.90" duration="55.00" routeLength="391.38" waitingTime="10.00" waitingCount="1" stopTime="0.00" timeLoss="22.11" rerouteNo="0" devices="vehroute_flow_1_phase1_N_straight.0 tripinfo_flow_1_phase1_N_straight.0" vType="bus" speedFactor="0.86" vaporized=""/>
    <tripinfo id="flow_6_phase1_S_left.1" depart="34.00" departLane="S_in_1" departPos="185.21" departSpeed="4.39" departDelay="0.47" arrival="56.00" arrivalLane="W_out_1" arrivalPos="189.60" arrivalSpeed="13.93" duration="22.00" routeLength="213.34" waitingTime="2.00" waitingCount="1" stopTime="0.00" timeLoss="5.92" rerouteNo="0" devices="vehroute_flow_6_phase1_S_left.1 tripinfo_flow_6_phase1_S_left.1" vType="moto" speedFactor="1.05" vaporized=""/>
    <tripinfo id="flow_3_phase1_N_right.1" depart="35.00" departLane="N_in_1" departPos="175.36" departSpeed="7.65" departDelay="0.74" arrival="56.00" arrivalLane="W_out_0" arrivalPos="189.60" arrivalSpeed="11.12" duration="21.00" routeLength="212.87" waitingTime="0.00" waitingCount="0" stopTime="0.00" timeLoss="3.09" rerouteNo="0" devices="vehroute_flow_3_phase1_N_right.1 tripinfo_flow_3_phase1_N_right.1" vType="moto" speedFactor="0.88" vaporized=""/>
    <tripinfo id="flow_5_phase1_S_straight.2" depart="27.00" departLane="S_in_1" departPos="59.51" departSpeed="13.27" departDelay="0.48" arrival="58.00" arrivalLane="N_out_0" arrivalPos="189.60" arrivalSpeed="13.29" duration="31.00" routeLength="340.49" waitingTime="0.00" waitingCount="0" stopTime="0.00" timeLoss="5.41" rerouteNo="0" devices="vehroute_flow_5_phase1_S_straight.2 tripinfo_flow_5_phase1_S_straight.2" vType="moto" speedFactor="0.96" vaporized=""/>
    <tripinfo id="flow_13_phase1_W_straight.1" depart="14.00" departLane="W_in_1" departPos="52.87" departSpeed="0.43" departDelay="0.58" arrival="61.00" arrivalLane="E_out_0" arrivalPos="189.60" arrivalSpeed="15.54" duration="47.00" routeLength="347.13" waitingTime="12.00" waitingCount="1" stopTime="0.00" timeLoss="24.29" rerouteNo="0" devices="vehroute_flow_13_phase1_W_straight.1 tripinfo_flow_13_phase1_W_straight.1" vType="car" speedFactor="1.12" vaporized=""/>
    <tripinfo id="flow_15_phase1_W_right.1" depart="33.00" departLane="W_in_1" departPos="110.92" departSpeed="7.70" departDelay="0.08" arrival="63.00" arrivalLane="S_out_0" arrivalPos="189.60" arrivalSpeed="14.50" duration="30.00" routeLength="277.31" waitingTime="1.00" waitingCount="1" stopTime="0.00" timeLoss="10.21" rerouteNo="0" devices="vehroute_flow_15_phase1_W_right.1 tripinfo_flow_15_phase1_W_right.1" vType="moto" speedFactor="1.08" vaporized=""/>
    <tripinfo id="flow_11_phase1_E_right.1" depart="33.00" departLane="W_in_0" departPos="73.90" departSpeed="8.86" departDelay="0.43" arrival="65.00" arrivalLane="E_out_0" arrivalPos="189.60" arrivalSpeed="14.12" duration="32.00" routeLength="326.10" waitingTime="1.00" waitingCount="1" stopTime="0.00" timeLoss="9.33" rerouteNo="0" devices="vehroute_flow_11_phase1_E_right.1 tripinfo_flow_11_phase1_E_right.1" vType="moto" speedFactor="1.04" vaporized=""/>
    <tripinfo id="flow_9_phase1_E_straight.3" depart="39.00" departLane="E_in_0" departPos="184.19" departSpeed="4.20" departDelay="0.28" arrival="68.00" arrivalLane="W_out_0" arrivalPos="189.60" arrivalSpeed="11.49" duration="29.00" routeLength="215.81" waitingTime="0.00" waitingCount="0" stopTime="0.00" timeLoss="9.88" rerouteNo="0" devices="vehroute_flow_9_phase1_E_straight.3 tripinfo_flow_9_phase1_E_straight.3" vType="bus" speedFactor="0.85" vaporized=""/>
    <tripinfo id="flow_9_phase1_E_straight.2" depart="26.00" departLane="E_in_1" departPos="12.70" departSpeed="12.82" departDelay="0.18" arrival="70.00" arrivalLane="W_out_0" arrivalPos="189.60" arrivalSpeed="13.36" duration="44.00" routeLength="387.30" waitingTime="3.00" waitingCount="1" stopTime="0.00" timeLoss="15.10" rerouteNo="0" devices="vehroute_flow_9_phase1_E_straight.2 tripinfo_flow_9_phase1_E_straight.2" vType="moto" speedFactor="0.99" vaporized=""/>
    <tripinfo id="flow_13_phase1_W_straight.0" depart="0.00" departLane="W_in_0" departPos="77.99" departSpeed="1.43" departDelay="0.00" arrival="71.00" arrivalLane="E_out_0" arrivalPos="189.60" arrivalSpeed="11.33" duration="71.00" routeLength="322.01" waitingTime="21.00" waitingCount="2" stopTime="0.00" timeLoss="42.09" rerouteNo="0" devices="vehroute_flow_13_phase1_W_straight.0 tripinfo_flow_13_phase1_W_straight.0" vType="container" speedFactor="0.82" vaporized=""/>
    <tripinfo id="flow_13_phase1_W_straight.2" depart="27.00" departLane="W_in_1" departPos="107.53" departSpeed="1.15" departDelay="0.17" arrival="73.00" arrivalLane="E_out_0" arrivalPos="189.60" arrivalSpeed="13.35" duration="46.00" routeLength="292.47" waitingTime="1.00" waitingCount="1" stopTime="0.00" timeLoss="23.90" rerouteNo="0" devices="vehroute_flow_13_phase1_W_straight.2 tripinfo_flow_13_phase1_W_straight.2" vType="bus" speedFactor="0.97" vaporized=""/>
    <tripinfo id="flow_1_phase1_N_straight.2" depart="28.00" departLane="N_in_0" departPos="8.88" departSpeed="2.33" departDelay="0.90" arrival="76.00" arrivalLane="S_out_0" arrivalPos="189.60" arrivalSpeed="12.64" duration="48.00" routeLength="391.12" waitingTime="10.00" waitingCount="1" stopTime="0.00" timeLoss="17.65" rerouteNo="0" devices="vehroute_flow_1_phase1_N_straight.2 tripinfo_flow_1_phase1_N_straight.2" vType="moto" speedFactor="0.93" vaporized=""/>
    <tripinfo id="flow_14_phase1_W_left.1" depart="35.00" departLane="W_in_0" departPos="86.42" departSpeed="5.40" departDelay="0.45" arrival="77.00" arrivalLane="N_out_1" arrivalPos="189.60" arrivalSpeed="12.55" duration="42.00" routeLength="312.13" waitingTime="0.00" waitingCount="0" stopTime="0.00" timeLoss="15.94" rerouteNo="0" devices="vehroute_flow_14_phase1_W_left.1 tripinfo_flow_14_phase1_W_left.1" vType="container" speedFactor="0.91" vaporized=""/>
    <tripinfo id="flow_5_phase1_S_straight.3" depart="40.00" departLane="S_in_0" departPos="65.01" departSpeed="6.15" departDelay="0.22" arrival="78.00" arrivalLane="N_out_0" arrivalPos="189.60" arrivalSpeed="14.00" duration="38.00" routeLength="334.99" waitingTime="3.00" waitingCount="1" stopTime="0.00" timeLoss="15.26" rerouteNo="0" devices="vehroute_flow_5_phase1_S_straight.3 tripinfo_flow_5_phase1_S_straight.3" vType="moto" speedFactor="1.08" vaporized=""/>
    <tripinfo id="flow_1_phase1_N_straight.3" depart="41.00" departLane="N_in_1" departPos="88.42" departSpeed="1.62" departDelay="0.35" arrival="78.00" arrivalLane="S_out_0" arrivalPos="189.60" arrivalSpeed="15.23" duration="37.00" routeLength="311.58" waitingTime="1.00" waitingCount="1" stopTime="0.00" timeLoss="16.69" rerouteNo="0" devices="vehroute_flow_1_phase1_N_straight.3 tripinfo_flow_1_phase1_N_straight.3" vType="moto" speedFactor="1.20" vaporized=""/>
    <tripinfo id="flow_10_phase1_E_left.0" depart="0.00" departLane="E_in_1" departPos="57.21" departSpeed="0.46" departDelay="0.00" arrival="79.00" arrivalLane="S_out_1" arrivalPos="189.60" arrivalSpeed="13.96" duration="79.00" routeLength="341.34" waitingTime="25.00" waitingCount="3" stopTime="0.00" timeLoss="53.62" rerouteNo="0" devices="vehroute_flow_10_phase1_E_left.0 tripinfo_flow_10_phase1_E_left.0" vType="truck" speedFactor="1.02" vaporized=""/>
    <tripinfo id="flow_5_phase1_S_straight.4" depart="54.00" departLane="S_in_0" departPos="70.46" departSpeed="11.90" departDelay="0.96" arrival="80.00" arrivalLane="N_out_1" arrivalPos="189.60" arrivalSpeed="12.93" duration="26.00" routeLength="329.54" waitingTime="0.00" waitingCount="0" stopTime="0.00" timeLoss="1.12" rerouteNo="0" devices="vehroute_flow_5_phase1_S_straight.4 tripinfo_flow_5_phase1_S_straight.4" vType="container" speedFactor="0.97" vaporized=""/>
    <tripinfo id="flow_2_phase1_N_left.1" depart="33.00" departLane="N_in_1" departPos="66.71" departSpeed="11.27" departDelay="0.24" arrival="82.00" arrivalLane="E_out_1" arrivalPos="189.60" arrivalSpeed="15.38" duration="49.00" routeLength="331.84" waitingTime="11.00" waitingCount="1" stopTime="0.00" timeLoss="27.25" rerouteNo="0" devices="vehroute_flow_2_phase1_N_left.1 tripinfo_flow_2_phase1_N_left.1" vType="moto" speedFactor="1.12" vaporized=""/>
    <tripinfo id="flow_7_phase1_S_right.1" depart="33.00" departLane="N_in_1" departPos="128.68" departSpeed="2.32" departDelay="0.43" arrival="89.00" arrivalLane="S_out_0" arrivalPos="189.60" arrivalSpeed="10.55" duration="56.00" routeLength="271.32" waitingTime="12.00" waitingCount="2" stopTime="0.00" timeLoss="30.99" rerouteNo="0" devices="vehroute_flow_7_phase1_S_right.1 tripinfo_flow_7_phase1_S_right.1" vType="container" speedFactor="0.78" vaporized=""/>
    <tripinfo id="flow_13_phase1_W_straight.3" depart="41.00" departLane="W_in_1" departPos="53.32" departSpeed="11.38" departDelay="0.75" arrival="89.00" arrivalLane="E_out_0" arrivalPos="189.60" arrivalSpeed="14.17" duration="48.00" routeLength="346.68" waitingTime="11.00" waitingCount="1" stopTime="0.00" timeLoss="23.60" rerouteNo="0" devices="vehroute_flow_13_phase1_W_straight.3 tripinfo_flow_13_phase1_W_straight.3" vType="car" speedFactor="1.05" vaporized=""/>
    <tripinfo id="flow_9_phase1_E_straight.4" depart="52.00" departLane="E_in_0" departPos="135.24" departSpeed="1.65" departDelay="0.37" arrival="93.00" arrivalLane="W_out_0" arrivalPos="189.60" arrivalSpeed="12.57" duration="41.00" routeLength="264.76" waitingTime="6.00" waitingCount="1" stopTime="0.00" timeLoss="20.46" rerouteNo="0" devices="vehroute_flow_9_phase1_E_straight.4 tripinfo_flow_9_phase1_E_straight.4" vType="bus" speedFactor="0.95" vaporized=""/>
    <tripinfo id="flow_11_phase1_E_right.2" depart="66.00" departLane="W_in_1" departPos="19.51" departSpeed="8.76" departDelay="0.87" arrival="93.00" arrivalLane="E_out_1" arrivalPos="189.60" arrivalSpeed="14.92" duration="27.00" routeLength="380.49" waitingTime="0.00" waitingCount="0" stopTime="0.00" timeLoss="1.43" rerouteNo="0" devices="vehroute_flow_11_phase1_E_right.2 tripinfo_flow_11_phase1_E_right.2" vType="emergency" speedFactor="1.10" vaporized=""/>
    <tripinfo id="flow_13_phase1_W_straight.4" depart="54.00" departLane="W_in_1" departPos="74.07" departSpeed="0.51" departDelay="0.34" arrival="95.00" arrivalLane="E_out_0" arrivalPos="189.60" arrivalSpeed="11.66" duration="41.00" routeLength="325.93" waitingTime="0.00" waitingCount="0" stopTime="0.00" timeLoss="13.43" rerouteNo="0" devices="vehroute_flow_13_phase1_W_straight.4 tripinfo_flow_13_phase1_W_straight.4" vType="bus" speedFactor="0.87" vaporized=""/>
    <tripinfo id="flow_9_phase1_E_straight.5" depart="65.00" departLane="E_in_1" departPos="65.33" departSpeed="12.93" departDelay="0.46" arrival="95.00" arrivalLane="W_out_0" arrivalPos="189.60" arrivalSpeed="13.00" duration="30.00" routeLength="334.67" waitingTime="0.00" waitingCount="0" stopTime="0.00" timeLoss="6.18" rerouteNo="0" devices="vehroute_flow_9_phase1_E_straight.5 tripinfo_flow_9_phase1_E_straight.5" vType="moto" speedFactor="1.03" vaporized=""/>
    <tripinfo id="flow_16_phase1_W_uturn.1" depart="67.00" departLane="W_in_1" departPos="174.17" departSpeed="8.14" departDelay="0.64" arrival="100.00" arrivalLane="S_out_0" arrivalPos="189.60" arrivalSpeed="12.15" duration="33.00" routeLength="214.06" waitingTime="5.00" waitingCount="2" stopTime="0.00" timeLoss="14.24" rerouteNo="0" devices="vehroute_flow_16_phase1_W_uturn.1 tripinfo_flow_16_phase1_W_uturn.1" vType="truck" speedFactor="0.89" vaporized=""/>
    <tripinfo id="flow_1_phase1_N_straight.5" depart="68.00" departLane="N_in_1" departPos="172.37" departSpeed="5.94" departDelay="0.26" arrival="101.00" arrivalLane="S_out_0" arrivalPos="189.60" arrivalSpeed="13.80" duration="33.00" routeLength="227.63" waitingTime="6.00" waitingCount="1" stopTime="0.00" timeLoss="17.59" rerouteNo="0" devices="vehroute_flow_1_phase1_N_straight.5 tripinfo_flow_1_phase1_N_straight.5" vType="moto" speedFactor="1.07" vaporized=""/>
    <tripinfo id="flow_7_phase1_S_right.2" depart="66.00" departLane="N_in_1" departPos="129.09" departSpeed="6.03" departDelay="0.86" arrival="103.00" arrivalLane="S_out_0" arrivalPos="189.60" arrivalSpeed="14.85" duration="37.00" routeLength="270.91" waitingTime="6.00" waitingCount="2" stopTime="0.00" timeLoss="19.17" rerouteNo="0" devices="vehroute_flow_7_phase1_S_right.2 tripinfo_flow_7_phase1_S_right.2" vType="moto" speedFactor="1.14" vaporized=""/>
    <tripinfo id="flow_3_phase1_N_right.2" depart="69.00" departLane="N_in_1" departPos="39.34" departSpeed="5.11" departDelay="0.47" arrival="103.00" arrivalLane="W_out_0" arrivalPos="189.60" arrivalSpeed="14.99" duration="34.00" routeLength="348.89" waitingTime="0.00" waitingCount="0" stopTime="0.00" timeLoss="10.12" rerouteNo="0" devices="vehroute_flow_3_phase1_N_right.2 tripinfo_flow_3_phase1_N_right.2" vType="moto" speedFactor="1.10" vaporized=""/>
    <tripinfo id="flow_5_phase1_S_straight.5" depart="67.00" departLane="S_in_1" departPos="65.57" departSpeed="2.18" departDelay="0.70" arrival="104.00" arrivalLane="N_out_0" arrivalPos="189.60" arrivalSpeed="12.35" duration="37.00" routeLength="334.43" waitingTime="0.00" waitingCount="0" stopTime="0.00" timeLoss="10.53" rerouteNo="0" devices="vehroute_flow_5_phase1_S_straight.5 tripinfo_flow_5_phase1_S_straight.5" vType="moto" speedFactor="0.94" vaporized=""/>
    <tripinfo id="flow_5_phase1_S_straight.6" depart="80.00" departLane="S_in_0" departPos="149.69" departSpeed="1.98" departDelay="0.43" arrival="105.00" arrivalLane="N_out_0" arrivalPos="189.60" arrivalSpeed="14.77" duration="25.00" routeLength="250.31" waitingTime="0.00" waitingCount="0" stopTime="0.00" timeLoss="8.08" rerouteNo="0" devices="vehroute_flow_5_phase1_S_straight.6 tripinfo_flow_5_phase1_S_straight.6" vType="moto" speedFactor="1.10" vaporized=""/>
    <tripinfo id="flow_10_phase1_E_left.1" depart="34.00" departLane="E_in_0" departPos="19.85" departSpeed="3.23" departDelay="0.42" arrival="106.00" arrivalLane="S_out_1" arrivalPos="189.60" arrivalSpeed="10.32" duration="72.00" routeLength="378.70" waitingTime="18.00" waitingCount="3" stopTime="0.00" timeLoss="34.75" rerouteNo="0" devices="vehroute_flow_10_phase1_E_left.1 tripinfo_flow_10_phase1_E_left.1" vType="truck" speedFactor="0.77" vaporized=""/>
    <tripinfo id="flow_1_phase1_N_straight.4" depart="55.00" departLane="N_in_1" departPos="160.30" departSpeed="5.70" departDelay="0.80" arrival="106.00" arrivalLane="S_out_0" arrivalPos="189.60" arrivalSpeed="12.48" duration="51.00" routeLength="239.70" waitingTime="13.00" waitingCount="1" stopTime="0.00" timeLoss="31.95" rerouteNo="0" devices="vehroute_flow_1_phase1_N_straight.4 tripinfo_flow_1_phase1_N_straight.4" vType="truck" speedFactor="0.92" vaporized=""/>
    <tripinfo id="flow_6_phase1_S_left.2" depart="68.00" departLane="S_in_0" departPos="161.41" departSpeed="1.81" departDelay="0.94" arrival="106.00" arrivalLane="W_out_1" arrivalPos="189.60" arrivalSpeed="15.09" duration="38.00" routeLength="237.14" waitingTime="11.00" waitingCount="2" stopTime="0.00" timeLoss="22.26" rerouteNo="0" devices="vehroute_flow_6_phase1_S_left.2 tripinfo_flow_6_phase1_S_left.2" vType="moto" speedFactor="1.14" vaporized=""/>
    <tripinfo id="flow_2_phase1_N_left.2" depart="66.00" departLane="N_in_1" departPos="111.69" departSpeed="5.97" departDelay="0.48" arrival="107.00" arrivalLane="E_out_1" arrivalPos="189.60" arrivalSpeed="13.13" duration="41.00" routeLength="286.86" waitingTime="5.00" waitingCount="2" stopTime="0.00" timeLoss="19.14" rerouteNo="0" devices="vehroute_flow_2_phase1_N_left.2 tripinfo_flow_2_phase1_N_left.2" vType="moto" speedFactor="1.00" vaporized=""/>
    <tripinfo id="flow_4_phase1_N_uturn.1" depart="67.00" departLane="N_in_0" departPos="91.52" departSpeed="10.95" departDelay="0.80" arrival="110.00" arrivalLane="N_out_1" arrivalPos="189.60" arrivalSpeed="12.26" duration="43.00" routeLength="292.35" waitingTime="1.00" waitingCount="1" stopTime="0.00" timeLoss="17.36" rerouteNo="0" devices="vehroute_flow_4_phase1_N_uturn.1 tripinfo_flow_4_phase1_N_uturn.1" vType="moto" speedFactor="0.89" vaporized=""/>
    <tripinfo id="flow_8_phase1_S_uturn.1" depart="67.00" departLane="S_in_0" departPos="64.25" departSpeed="6.71" departDelay="0.92" arrival="110.00" arrivalLane="S_out_1" arrivalPos="189.60" arrivalSpeed="14.01" duration="43.00" routeLength="319.62" waitingTime="8.00" waitingCount="2" stopTime="0.00" timeLoss="18.90" rerouteNo="0" devices="vehroute_flow_8_phase1_S_uturn.1 tripinfo_flow_8_phase1_S_uturn.1" vType="moto" speedFactor="1.03" vaporized=""/>
    <tripinfo id="flow_9_phase1_E_straight.6" depart="78.00" departLane="E_in_1" departPos="29.88" departSpeed="11.37" departDelay="0.55" arrival="114.00" arrivalLane="W_out_0" arrivalPos="189.60" arrivalSpeed="13.72" duration="36.00" routeLength="370.12" waitingTime="0.00" waitingCount="0" stopTime="0.00" timeLoss="9.31" rerouteNo="0" devices="vehroute_flow_9_phase1_E_straight.6 tripinfo_flow_9_phase1_E_straight.6" vType="moto" speedFactor="1.02" vaporized=""/>
    <tripinfo id="flow_15_phase1_W_right.2" depart="66.00" departLane="W_in_1" departPos="2.77" departSpeed="7.27" departDelay="0.17" arrival="116.00" arrivalLane="S_out_0" arrivalPos="189.60" arrivalSpeed="12.30" duration="50.00" routeLength="385.46" waitingTime="12.00" waitingCount="1" stopTime="0.00" timeLoss="19.47" rerouteNo="0" devices="vehroute_flow_15_phase1_W_right.2 tripinfo_flow_15_phase1_W_right.2" vType="moto" speedFactor="0.95" vaporized=""/>
    <tripinfo id="flow_13_phase1_W_straight.5" depart="68.00" departLane="W_in_0" departPos="87.76" departSpeed="9.83" departDelay="0.92" arrival="116.00" arrivalLane="E_out_0" arrivalPos="189.60" arrivalSpeed="11.28" duration="48.00" routeLength="312.24" waitingTime="12.00" waitingCount="1" stopTime="0.00" timeLoss="22.44" rerouteNo="0" devices="vehroute_flow_13_phase1_W_straight.5 tripinfo_flow_13_phase1_W_straight.5" vType="moto" speedFactor="0.90" vaporized=""/>
    <tripinfo id="flow_9_phase1_E_straight.7" depart="91.00" departLane="E_in_1" departPos="88.32" departSpeed="11.93" departDelay="0.64" arrival="117.00" arrivalLane="W_out_0" arrivalPos="189.60" arrivalSpeed="13.00" duration="26.00" routeLength="311.68" waitingTime="0.00" waitingCount="0" stopTime="0.00" timeLoss="3.48" rerouteNo="0" devices="vehroute_flow_9_phase1_E_straight.7 tripinfo_flow_9_phase1_E_straight.7" vType="moto" speedFactor="1.01" vaporized=""/>
    <tripinfo id="flow_15_phase1_W_right.3" depart="99.00" departLane="W_in_0" departPos="150.32" departSpeed="6.88" departDelay="0.25" arrival="119.00" arrivalLane="S_out_0" arrivalPos="189.60" arrivalSpeed="15.73" duration="20.00" routeLength="237.91" waitingTime="0.00" waitingCount="0" stopTime="0.00" timeLoss="3.79" rerouteNo="0" devices="vehroute_flow_15_phase1_W_right.3 tripinfo_flow_15_phase1_W_right.3" vType="moto" speedFactor="1.17" vaporized=""/>
    <tripinfo id="flow_14_phase1_W_left.2" depart="70.00" departLane="W_in_0" departPos="84.30" departSpeed="5.57" departDelay="0.90" arrival="122.00" arrivalLane="N_out_1" arrivalPos="189.60" arrivalSpeed="11.80" duration="52.00" routeLength="314.25" waitingTime="18.00" waitingCount="2" stopTime="0.00" timeLoss="25.69" rerouteNo="0" devices="vehroute_flow_14_phase1_W_left.2 tripinfo_flow_14_phase1_W_left.2" vType="car" speedFactor="0.90" vaporized=""/>
    <tripinfo id="flow_13_phase1_W_straight.6" depart="81.00" departLane="W_in_0" departPos="42.85" departSpeed="1.33" departDelay="0.50" arrival="124.00" arrivalLane="E_out_0" arrivalPos="189.60" arrivalSpeed="12.45" duration="43.00" routeLength="357.15" waitingTime="4.00" waitingCount="1" stopTime="0.00" timeLoss="16.04" rerouteNo="0" devices="vehroute_flow_13_phase1_W_straight.6 tripinfo_flow_13_phase1_W_straight.6" vType="car" speedFactor="0.98" vaporized=""/>
    <tripinfo id="flow_7_phase1_S_right.3" depart="98.00" departLane="N_in_1" departPos="142.12" departSpeed="0.51" departDelay="0.28" arrival="127.00" arrivalLane="S_out_1" arrivalPos="189.60" arrivalSpeed="14.23" duration="29.00" routeLength="257.88" waitingTime="0.00" waitingCount="0" stopTime="0.00" timeLoss="10.73" rerouteNo="0" devices="vehroute_flow_7_phase1_S_right.3 tripinfo_flow_7_phase1_S_right.3" vType="moto" speedFactor="1.07" vaporized=""/>
    <tripinfo id="flow_1_phase1_N_straight.6" depart="82.00" departLane="N_in_1" departPos="60.83" departSpeed="2.66" departDelay="0.71" arrival="128.00" arrivalLane="S_out_0" arrivalPos="189.60" arrivalSpeed="12.54" duration="46.00" routeLength="339.17" waitingTime="11.00" waitingCount="1" stopTime="0.00" timeLoss="20.33" rerouteNo="0" devices="vehroute_flow_1_phase1_N_straight.6 tripinfo_flow_1_phase1_N_straight.6" vType="car" speedFactor="0.98" vaporized=""/>
    <tripinfo id="flow_1_phase1_N_straight.7" depart="95.00" departLane="N_in_0" departPos="16.04" departSpeed="5.96" departDelay="0.16" arrival="129.00" arrivalLane="S_out_0" arrivalPos="189.60" arrivalSpeed="14.07" duration="34.00" routeLength="383.96" waitingTime="0.00" waitingCount="0" stopTime="0.00" timeLoss="7.74" rerouteNo="0" devices="vehroute_flow_1_phase1_N_straight.7 tripinfo_flow_1_phase1_N_straight.7" vType="moto" speedFactor="1.06" vaporized=""/>