<?xml version="1.0" encoding="UTF-8"?>

<!-- generated on 2025-12-09 20:43:44 by Eclipse SUMO sumo Version 1.18.0
<configuration xmlns:xsi="http://www.w3.org/2001/XMLSchema-instance" xsi:noNamespaceSchemaLocation="http://sumo.dlr.de/xsd/sumoConfiguration.xsd">

    <input>
        <net-file value="/workspace/nets/60p2k/net.net.xml"/>
        <route-files value="/workspace/nets/60p2k/route_temp_72_137290992368128_57441218.rou.xml"/>
    </input>

    <output>
        <summary-output value="results/summary_ep_7.xml"/>
        <tripinfo-output value="results/tripinfo_ep_7.xml"/>
        <vehroute-output value="results/vehroute_ep_7.xml"/>
    </output>

    <time>
        <begin value="0"/>
    </time>

    <report>
        <verbose value="true"/>
        <no-step-log value="true"/>
    </report>

    <traci_server>
        <remote-port value="53027"/>
    </traci_server>

    <gui_only>
        <gui-settings-file value="/workspace/nets/60p2k/gui-settings.xml"/>
        <quit-on-end value="true"/>
    </gui_only>

</configuration>
-->

<tripinfos xmlns:xsi="http://www.w3.org/2001/XMLSchema-instance" xsi:noNamespaceSchemaLocation="http://sumo.dlr.de/xsd/tripinfo_file.xsd">
    <tripinfo id="flow_3_phase1_N_right.0" depart="0.00" departLane="N_in_0" departPos="103.38" departSpeed="3.75" departDelay="0.00" arrival="24.00" arrivalLane="W_out_0" arrivalPos="189.60" arrivalSpeed="14.93" duration="24.00" routeLength="284.85" waitingTime="0.00" waitingCount="0" stopTime="0.00" timeLoss="4.29" rerouteNo="0" devices="vehroute_flow_3_phase1_N_right.0 tripinfo_flow_3_phase1_N_right.0" vType="car" speedFactor="1.09" vaporized=""/>
    <tripinfo id="flow_8_phase1_S_uturn.0" depart="0.00" departLane="S_in_0" departPos="120.11" departSpeed="4.48" departDelay="0.00" arrival="24.00" arrivalLane="S_out_1" arrivalPos="189.60" arrivalSpeed="13.35" duration="24.00" routeLength="263.76" waitingTime="0.00" waitingCount="0" stopTime="0.00" timeLoss="4.90" rerouteNo="0" devices="vehroute_flow_8_phase1_S_uturn.0 tripinfo_flow_8_phase1_S_uturn.0" vType="moto" speedFactor="1.05" vaporized=""/>
    <tripinfo id="flow_5_phase1_S_straight.0" depart="0.00" departLane="S_in_1" departPos="107.37" departSpeed="7.21" departDelay="0.00" arrival="25.00" arrivalLane="N_out_1" arrivalPos="189.60" arrivalSpeed="15.54" duration="25.00" routeLength="292.63" waitingTime="0.00" waitingCount="0" stopTime="0.00" timeLoss="6.40" rerouteNo="0" devices="vehroute_flow_5_phase1_S_straight.0 tripinfo_flow_5_phase1_S_straight.0" vType="moto" speedFactor="1.15" vaporized=""/>
    <tripinfo id="flow_6_phase1_S_left.0" depart="0.00" departLane="S_in_1" departPos="166.01" departSpeed="0.74" departDelay="0.00" arrival="25.00" arrivalLane="W_out_1" arrivalPos="189.60" arrivalSpeed="11.57" duration="25.00" routeLength="232.54" waitingTime="0.00" waitingCount="0" stopTime="0.00" timeLoss="4.36" rerouteNo="0" devices="vehroute_flow_6_phase1_S_left.0 tripinfo_flow_6_phase1_S_left.0" vType="moto" speedFactor="0.88" vaporized=""/>
    <tripinfo id="flow_4_phase1_N_uturn.0" depart="0.00" departLane="N_in_1" departPos="127.60" departSpeed="0.08" departDelay="0.00" arrival="32.00" arrivalLane="N_out_1" arrivalPos="189.60" arrivalSpeed="11.78" duration="32.00" routeLength="256.27" waitingTime="2.00" waitingCount="1" stopTime="0.00" timeLoss="10.50" rerouteNo="0" devices="vehroute_flow_4_phase1_N_uturn.0 tripinfo_flow_4_phase1_N_uturn.0" vType="car" speedFactor="0.92" vaporized=""/>
    <tripinfo id="flow_13_phase1_W_straight.0" depart="0.00" departLane="W_in_0" departPos="24.53" departSpeed="3.79" departDelay="0.00" arrival="38.00" arrivalLane="E_out_0" arrivalPos="189.60" arrivalSpeed="10.91" duration="38.00" routeLength="375.47" waitingTime="0.00" waitingCount="0" stopTime="0.00" timeLoss="4.80" rerouteNo="0" devices="vehroute_flow_13_phase1_W_straight.0 tripinfo_flow_13_phase1_W_straight.0" vType="container" speedFactor="0.82" vaporized=""/>
    <tripinfo id="flow_16_phase1_W_uturn.0" depart="0.00" departLane="W_in_1" departPos="153.90" departSpeed="3.48" departDelay="0.00" arrival="38.00" arrivalLane="W_out_1" arrivalPos="189.60" arrivalSpeed="14.32" duration="38.00" routeLength="229.97" waitingTime="12.00" waitingCount="1" stopTime="0.00" timeLoss="20.39" rerouteNo="0" devices="vehroute_flow_16_phase1_W_uturn.0 tripinfo_flow_16_phase1_W_uturn.0" vType="moto" speedFactor="1.04" vaporized=""/>
    <tripinfo id="flow_9_phase1_E_straight.0" depart="0.00" departLane="E_in_0" departPos="168.29" departSpeed="9.83" departDelay="0.00" arrival="41.00" arrivalLane="W_out_0" arrivalPos="189.60" arrivalSpeed="12.31" duration="41.00" routeLength="231.71" waitingTime="11.00" waitingCount="1" stopTime="0.00" timeLoss="21.81" rerouteNo="0" devices="vehroute_flow_9_phase1_E_straight.0 tripinfo_flow_9_phase1_E_straight.0" vType="truck" speedFactor="0.90" vaporized=""/>
    <tripinfo id="flow_14_phase1_W_left.0" depart="0.00" departLane="W_in_1" departPos="182.88" departSpeed="5.61" departDelay="0.00" arrival="41.00" arrivalLane="N_out_1" arrivalPos="189.60" arrivalSpeed="13.84" duration="41.00" routeLength="215.67" waitingTime="16.00" waitingCount="2" stopTime="0.00" timeLoss="24.87" rerouteNo="0" devices="vehroute_flow_14_phase1_W_left.0 tripinfo_flow_14_phase1_W_left.0" vType="moto" speedFactor="1.01" vaporized=""/>
    <tripinfo id="flow_11_phase1_E_right.0" depart="0.00" departLane="E_in_1" departPos="144.95" departSpeed="4.02" departDelay="0.00" arrival="42.00" arrivalLane="N_out_0" arrivalPos="189.60" arrivalSpeed="12.61" duration="42.00" routeLength="243.28" waitingTime="10.00" waitingCount="1" stopTime="0.00" timeLoss="22.05" rerouteNo="0" devices="vehroute_flow_11_phase1_E_right.0 tripinfo_flow_11_phase1_E_right.0" vType="bus" speedFactor="0.96" vaporized=""/>
    <tripinfo id="flow_12_phase1_E_uturn.0" depart="0.00" departLane="E_in_0" departPos="5.65" departSpeed="13.76" departDelay="0.00" arrival="43.00" arrivalLane="E_out_1" arrivalPos="189.60" arrivalSpeed="13.21" duration="43.00" routeLength="378.22" waitingTime="2.00" waitingCount="1" stopTime="0.00" timeLoss="15.74" rerouteNo="0" devices="vehroute_flow_12_phase1_E_uturn.0 tripinfo_flow_12_phase1_E_uturn.0" vType="moto" speedFactor="1.03" vaporized=""/>
    <tripinfo id="flow_10_phase1_E_left.0" depart="0.00" departLane="E_in_0" departPos="44.88" departSpeed="7.69" departDelay="0.00" arrival="45.00" arrivalLane="S_out_1" arrivalPos="189.60" arrivalSpeed="13.49" duration="45.00" routeLength="353.67" waitingTime="4.00" waitingCount="2" stopTime="0.00" timeLoss="18.43" rerouteNo="0" devices="vehroute_flow_10_phase1_E_left.0 tripinfo_flow_10_phase1_E_left.0" vType="truck" speedFactor="1.02" vaporized=""/>
    <tripinfo id="flow_15_phase1_W_right.0" depart="0.00" departLane="N_in_0" departPos="31.84" departSpeed="2.63" departDelay="0.00" arrival="51.00" arrivalLane="N_out_1" arrivalPos="189.60" arrivalSpeed="10.55" duration="51.00" routeLength="352.03" waitingTime="12.00" waitingCount="1" stopTime="0.00" timeLoss="19.75" rerouteNo="0" devices="vehroute_flow_15_phase1_W_right.0 tripinfo_flow_15_phase1_W_right.0" vType="moto" speedFactor="0.85" vaporized=""/>
    <tripinfo id="flow_5_phase1_S_straight.1" depart="26.00" departLane="S_in_0" departPos="93.39" departSpeed="4.92" departDelay="0.86" arrival="53.00" arrivalLane="N_out_1" arrivalPos="189.60" arrivalSpeed="15.32" duration="27.00" routeLength="306.61" waitingTime="0.00" waitingCount="0" stopTime="0.00" timeLoss="6.90" rerouteNo="0" devices="vehroute_flow_5_phase1_S_straight.1 tripinfo_flow_5_phase1_S_straight.1" vType="moto" speedFactor="1.19" vaporized=""/>
    <tripinfo id="flow_2_phase1_N_left.0" depart="0.00" departLane="N_in_1" departPos="8.27" departSpeed="8.33" departDelay="0.00" arrival="54.00" arrivalLane="E_out_1" arrivalPos="189.60" arrivalSpeed="14.01" duration="54.00" routeLength="390.28" waitingTime="11.00" waitingCount="1" stopTime="0.00" timeLoss="25.65" rerouteNo="0" devices="vehroute_flow_2_phase1_N_left.0 tripinfo_flow_2_phase1_N_left.0" vType="moto" speedFactor="1.02" vaporized=""/>
    <tripinfo id="flow_1_phase1_N_straight.0" depart="0.00" departLane="N_in_0" departPos="8.62" departSpeed="8.51" departDelay="0.00" arrival="56.00" arrivalLane="S_out_0" arrivalPos="189.60" arrivalSpeed="11.59" duration="56.00" routeLength="391.38" waitingTime="10.00" waitingCount="1" stopTime="0.00" timeLoss="22.94" rerouteNo="0" devices="vehroute_flow_1_phase1_N_straight.0 tripinfo_flow_1_phase1_N_straight.0" vType="bus" speedFactor="0.86" vaporized=""/>
    <tripinfo id="flow_7_phase1_S_right.0" depart="0.00" departLane="S_in_0" departPos="8.76" departSpeed="8.07" departDelay="0.00" arrival="57.00" arrivalLane="E_out_0" arrivalPos="189.60" arrivalSpeed="11.78" duration="57.00" routeLength="379.47" waitingTime="12.00" waitingCount="1" stopTime="0.00" timeLoss="23.89" rerouteNo="0" devices="vehroute_flow_7_phase1_S_right.0 tripinfo_flow_7_phase1_S_right.0" vType="container" speedFactor="0.85" vaporized=""/>
    <tripinfo id="flow_1_phase1_N_straight.1" depart="26.00" departLane="N_in_1" departPos="177.29" departSpeed="5.01" departDelay="0.32" arrival="58.00" arrivalLane="S_out_1" arrivalPos="189.60" arrivalSpeed="10.92" duration="32.00" routeLength="222.71" waitingTime="3.00" waitingCount="1" stopTime="0.00" timeLoss="13.24" rerouteNo="0" devices="vehroute_flow_1_phase1_N_straight.1 tripinfo_flow_1_phase1_N_straight.1" vType="moto" speedFactor="0.87" vaporized=""/>
    <tripinfo id="flow_9_phase1_E_straight.1" depart="25.00" departLane="E_in_0" departPos="135.67" departSpeed="10.69" departDelay="0.53" arrival="70.00" arrivalLane="W_out_0" arrivalPos="189.60" arrivalSpeed="15.18" duration="45.00" routeLength="264.33" waitingTime="21.00" waitingCount="1" stopTime="0.00" timeLoss="28.44" rerouteNo="0" devices="vehroute_flow_9_phase1_E_straight.1 tripinfo_flow_9_phase1_E_straight.1" vType="moto" speedFactor="1.16" vaporized=""/>
    <tripinfo id="flow_13_phase1_W_straight.1" depart="26.00" departLane="W_in_1" departPos="181.05" departSpeed="2.63" departDelay="0.57" arrival="71.00" arrivalLane="E_out_0" arrivalPos="189.60" arrivalSpeed="15.12" duration="45.00" routeLength="218.95" waitingTime="24.00" waitingCount="1" stopTime="0.00" timeLoss="30.71" rerouteNo="0" devices="vehroute_flow_13_phase1_W_straight.1 tripinfo_flow_13_phase1_W_straight.1" vType="car" speedFactor="1.12" vaporized=""/>
    <tripinfo id="flow_9_phase1_E_straight.2" depart="49.00" departLane="E_in_1" departPos="28.79" departSpeed="8.86" departDelay="0.07" arrival="78.00" arrivalLane="W_out_1" arrivalPos="189.60" arrivalSpeed="12.66" duration="29.00" routeLength="371.21" waitingTime="0.00" waitingCount="0" stopTime="0.00" timeLoss="1.80" rerouteNo="0" devices="vehroute_flow_9_phase1_E_straight.2 tripinfo_flow_9_phase1_E_straight.2" vType="moto" speedFactor="0.99" vaporized=""/>
    <tripinfo id="flow_13_phase1_W_straight.2" depart="51.00" departLane="W_in_0" departPos="33.93" departSpeed="0.90" departDelay="0.14" arrival="86.00" arrivalLane="E_out_0" arrivalPos="189.60" arrivalSpeed="13.32" duration="35.00" routeLength="366.07" waitingTime="0.00" waitingCount="0" stopTime="0.00" timeLoss="7.12" rerouteNo="0" devices="vehroute_flow_13_phase1_W_straight.2 tripinfo_flow_13_phase1_W_straight.2" vType="bus" speedFactor="0.97" vaporized=""/>
    <tripinfo id="flow_7_phase1_S_right.1" depart="62.00" departLane="S_in_1" departPos="39.28" departSpeed="8.85" departDelay="0.26" arrival="95.00" arrivalLane="E_out_0" arrivalPos="189.60" arrivalSpeed="14.46" duration="33.00" routeLength="348.95" waitingTime="1.00" waitingCount="1" stopTime="0.00" timeLoss="9.70" rerouteNo="0" devices="vehroute_flow_7_phase1_S_right.1 tripinfo_flow_7_phase1_S_right.1" vType="moto" speedFactor="1.12" vaporized=""/>
    <tripinfo id="flow_5_phase1_S_straight.2" depart="51.00" departLane="S_in_1" departPos="103.67" departSpeed="3.73" departDelay="0.73" arrival="96.00" arrivalLane="N_out_0" arrivalPos="189.60" arrivalSpeed="12.48" duration="45.00" routeLength="296.33" waitingTime="16.00" waitingCount="1" stopTime="0.00" timeLoss="21.96" rerouteNo="0" devices="vehroute_flow_5_phase1_S_straight.2 tripinfo_flow_5_phase1_S_straight.2" vType="moto" speedFactor="0.96" vaporized=""/>
    <tripinfo id="flow_1_phase1_N_straight.2" depart="52.00" departLane="N_in_1" departPos="64.28" departSpeed="4.05" departDelay="0.64" arrival="97.00" arrivalLane="S_out_0" arrivalPos="189.60" arrivalSpeed="12.56" duration="45.00" routeLength="335.72" waitingTime="9.00" waitingCount="1" stopTime="0.00" timeLoss="18.12" rerouteNo="0" devices="vehroute_flow_1_phase1_N_straight.2 tripinfo_flow_1_phase1_N_straight.2" vType="moto" speedFactor="0.93" vaporized=""/>
    <tripinfo id="flow_15_phase1_W_right.1" depart="63.00" departLane="N_in_0" departPos="80.24" departSpeed="10.18" departDelay="0.61" arrival="99.00" arrivalLane="N_out_1" arrivalPos="189.60" arrivalSpeed="13.74" duration="36.00" routeLength="303.63" waitingTime="7.00" waitingCount="2" stopTime="0.00" timeLoss="14.80" rerouteNo="0" devices="vehroute_flow_15_phase1_W_right.1 tripinfo_flow_15_phase1_W_right.1" vType="moto" speedFactor="1.08" vaporized=""/>
    <tripinfo id="flow_1_phase1_N_straight.3" depart="78.00" departLane="N_in_0" departPos="132.62" departSpeed="4.99" departDelay="0.96" arrival="99.00" arrivalLane="S_out_0" arrivalPos="189.60" arrivalSpeed="13.77" duration="21.00" routeLength="267.38" waitingTime="0.00" waitingCount="0" stopTime="0.00" timeLoss="2.39" rerouteNo="0" devices="vehroute_flow_1_phase1_N_straight.3 tripinfo_flow_1_phase1_N_straight.3" vType="car" speedFactor="1.05" vaporized=""/>
    <tripinfo id="flow_3_phase1_N_right.1" depart="65.00" departLane="N_in_0" departPos="4.52" departSpeed="11.96" departDelay="0.05" arrival="100.00" arrivalLane="W_out_0" arrivalPos="189.60" arrivalSpeed="10.96" duration="35.00" routeLength="383.71" waitingTime="0.00" waitingCount="0" stopTime="0.00" timeLoss="3.07" rerouteNo="0" devices="vehroute_flow_3_phase1_N_right.1 tripinfo_flow_3_phase1_N_right.1" vType="moto" speedFactor="0.88" vaporized=""/>
    <tripinfo id="flow_5_phase1_S_straight.3" depart="76.00" departLane="S_in_1" departPos="165.68" departSpeed="6.82" departDelay="0.59" arrival="101.00" arrivalLane="N_out_0" arrivalPos="189.60" arrivalSpeed="14.39" duration="25.00" routeLength="234.32" waitingTime="2.00" waitingCount="1" stopTime="0.00" timeLoss="8.88" rerouteNo="0" devices="vehroute_flow_5_phase1_S_straight.3 tripinfo_flow_5_phase1_S_straight.3" vType="moto" speedFactor="1.08" vaporized=""/>
    <tripinfo id="flow_6_phase1_S_left.1" depart="64.00" departLane="S_in_1" departPos="97.23" departSpeed="5.66" departDelay="0.44" arrival="103.00" arrivalLane="W_out_1" arrivalPos="189.60" arrivalSpeed="13.58" duration="39.00" routeLength="301.32" waitingTime="9.00" waitingCount="2" stopTime="0.00" timeLoss="17.02" rerouteNo="0" devices="vehroute_flow_6_phase1_S_left.1 tripinfo_flow_6_phase1_S_left.1" vType="moto" speedFactor="1.05" vaporized=""/>
    <tripinfo id="flow_2_phase1_N_left.1" depart="63.00" departLane="N_in_0" departPos="54.99" departSpeed="5.07" departDelay="0.91" arrival="104.00" arrivalLane="E_out_1" arrivalPos="189.60" arrivalSpeed="13.86" duration="41.00" routeLength="343.56" waitingTime="4.00" waitingCount="2" stopTime="0.00" timeLoss="15.88" rerouteNo="0" devices="vehroute_flow_2_phase1_N_left.1 tripinfo_flow_2_phase1_N_left.1" vType="moto" speedFactor="1.04" vaporized=""/>
    <tripinfo id="flow_13_phase1_W_straight.3" depart="77.00" departLane="W_in_0" departPos="56.18" departSpeed="15.54" departDelay="0.71" arrival="107.00" arrivalLane="E_out_0" arrivalPos="189.60" arrivalSpeed="15.46" duration="30.00" routeLength="343.82" waitingTime="1.00" waitingCount="1" stopTime="0.00" timeLoss="7.57" rerouteNo="0" devices="vehroute_flow_13_phase1_W_straight.3 tripinfo_flow_13_phase1_W_straight.3" vType="moto" speedFactor="1.20" vaporized=""/>
    <tripinfo id="flow_11_phase1_E_right.1" depart="62.00" departLane="E_in_0" departPos="15.17" departSpeed="0.51" departDelay="0.27" arrival="116.00" arrivalLane="N_out_0" arrivalPos="189.60" arrivalSpeed="10.70" duration="54.00" routeLength="373.06" waitingTime="0.00" waitingCount="0" stopTime="0.00" timeLoss="18.53" rerouteNo="0" devices="vehroute_flow_11_phase1_E_right.1 tripinfo_flow_11_phase1_E_right.1" vType="container" speedFactor="0.78" vaporized=""/>
    <tripinfo id="flow_10_phase1_E_left.1" depart="64.00" departLane="E_in_1" departPos="79.10" departSpeed="6.23" departDelay="0.35" arrival="118.00" arrivalLane="S_out_0" arrivalPos="189.60" arrivalSpeed="10.28" duration="54.00" routeLength="319.45" waitingTime="11.00" waitingCount="2" stopTime="0.00" timeLoss="22.76" rerouteNo="0" devices="vehroute_flow_10_phase1_E_left.1 tripinfo_flow_10_phase1_E_left.1" vType="truck" speedFactor="0.77" vaporized=""/>
    <tripinfo id="flow_9_phase1_E_straight.3" depart="74.00" departLane="E_in_1" departPos="80.60" departSpeed="5.83" departDelay="0.60" arrival="120.00" arrivalLane="W_out_0" arrivalPos="189.60" arrivalSpeed="11.67" duration="46.00" routeLength="319.40" waitingTime="4.00" waitingCount="1" stopTime="0.00" timeLoss="18.05" rerouteNo="0" devices="vehroute_flow_9_phase1_E_straight.3 tripinfo_flow_9_phase1_E_straight.3" vType="bus" speedFactor="0.85" vaporized=""/>
    <tripinfo id="flow_9_phase1_E_straight.4" depart="98.00" departLane="E_in_0" departPos="125.48" departSpeed="6.17" departDelay="0.14" arrival="122.00" arrivalLane="W_out_0" arrivalPos="189.60" arrivalSpeed="13.02" duration="24.00" routeLength="274.52" waitingTime="0.00" waitingCount="0" stopTime="0.00" timeLoss="2.77" rerouteNo="0" devices="vehroute_flow_9_phase1_E_straight.4 tripinfo_flow_9_phase1_E_straight.4" vType="bus" speedFactor="0.95" vaporized=""/>
    <tripinfo id="flow_14_phase1_W_left.1" depart="66.00" departLane="W_in_0" departPos="118.54" departSpeed="1.33" departDelay="0.51" arrival="135.00" arrivalLane="N_out_1" arrivalPos="189.60" arrivalSpeed="12.64" duration="69.00" routeLength="280.01" waitingTime="23.00" waitingCount="2" stopTime="0.00" timeLoss="45.91" rerouteNo="0" devices="vehroute_flow_14_phase1_W_left.1 tripinfo_flow_14_phase1_W_left.1" vType="container" speedFactor="0.91" vaporized=""/>
    <tripinfo id="flow_5_phase1_S_straight.4" depart="101.00" departLane="S_in_1" departPos="135.04" departSpeed="3.79" departDelay="0.46" arrival="139.00" arrivalLane="N_out_0" arrivalPos="189.60" arrivalSpeed="13.05" duration="38.00" routeLength="264.96" waitingTime="1.00" waitingCount="1" stopTime="0.00" timeLoss="18.24" rerouteNo="0" devices="vehroute_flow_5_phase1_S_straight.4 tripinfo_flow_5_phase1_S_straight.4" vType="container" speedFactor="0.97" vaporized=""/>
    <tripinfo id="flow_1_phase1_N_straight.4" depart="103.00" departLane="N_in_0" departPos="91.01" departSpeed="4.75" departDelay="0.28" arrival="139.00" arrivalLane="S_out_0" arrivalPos="189.60" arrivalSpeed="12.34" duration="36.00" routeLength="308.99" waitingTime="0.00" waitingCount="0" stopTime="0.00" timeLoss="10.98" rerouteNo="0" devices="vehroute_flow_1_phase1_N_straight.4 tripinfo_flow_1_phase1_N_straight.4" vType="truck" speedFactor="0.92" vaporized=""/>
    <tripinfo id="flow_5_phase1_S_straight.5" depart="126.00" departLane="S_in_0" departPos="179.13" departSpeed="10.14" departDelay="0.32" arrival="145.00" arrivalLane="N_out_0" arrivalPos="189.60" arrivalSpeed="12.05" duration="19.00" routeLength="220.87" waitingTime="0.00" waitingCount="0" stopTime="0.00" timeLoss="0.92" rerouteNo="0" devices="vehroute_flow_5_phase1_S_straight.5 tripinfo_flow_5_phase1_S_straight.5" vType="moto" speedFactor="0.89" vaporized=""/>
    <tripinfo id="flow_4_phase1_N_uturn.1" depart="126.00" departLane="N_in_1" departPos="162.40" departSpeed="1.36" departDelay="0.52" arrival="150.00" arrivalLane="N_out_1" arrivalPos="189.60" arrivalSpeed="12.63" duration="24.00" routeLength="221.47" waitingTime="0.00" waitingCount="0" stopTime="0.00" timeLoss="5.95" rerouteNo="0" devices="vehroute_flow_4_phase1_N_uturn.1 tripinfo_flow_4_phase1_N_uturn.1" vType="moto" speedFactor="0.95" vaporized=""/>
    <tripinfo id="flow_8_phase1_S_uturn.1" depart="126.00" departLane="S_in_0" departPos="168.21" departSpeed="0.19" departDelay="0.74" arrival="150.00" arrivalLane="S_out_1" arrivalPos="189.60" arrivalSpeed="12.28" duration="24.00" routeLength="215.66" waitingTime="0.00" waitingCount="0" stopTime="0.00" timeLoss="5.96" rerouteNo="0" devices="vehroute_flow_8_phase1_S_uturn.1 tripinfo_flow_8_phase1_S_uturn.1" vType="moto" speedFactor="0.94" vaporized=""/>
    <tripinfo id="flow_7_phase1_S_right.2" depart="124.00" departLane="S_in_1" departPos="29.12" departSpeed="11.71" departDelay="0.52" arrival="155.00" arrivalLane="E_out_0" arrivalPos="189.60" arrivalSpeed="13.74" duration="31.00" routeLength="359.11" waitingTime="0.00" waitingCount="0" stopTime="0.00" timeLoss="3.91" rerouteNo="0" devices="vehroute_flow_7_phase1_S_right.2 tripinfo_flow_7_phase1_S_right.2" vType="moto" speedFactor="1.00" vaporized=""/>
    <tripinfo id="flow_2_phase1_N_left.2" depart="125.00" departLane="N_in_0" departPos="52.57" departSpeed="9.00" departDelay="0.82" arrival="155.00" arrivalLane="E_out_1" arrivalPos="189.60" arrivalSpeed="14.51" duration="30.00" routeLength="345.98" waitingTime="0.00" waitingCount="0" stopTime="0.00" timeLoss="5.96" rerouteNo="0" devices="vehroute_flow_2_phase1_N_left.2 tripinfo_flow_2_phase1_N_left.2" vType="emergency" speedFactor="1.10" vaporized=""/>
    <tripinfo id="flow_15_phase1_W_right.2" depart="125.00" departLane="N_in_1" departPos="112.37" departSpeed="8.89" departDelay="0.22" arrival="155.00" arrivalLane="N_out_1" arrivalPos="189.60" arrivalSpeed="13.00" duration="30.00" routeLength="271.50" waitingTime="0.00" waitingCount="0" stopTime="0.00" timeLoss="7.90" rerouteNo="0" devices="vehroute_flow_15_phase1_W_right.2 tripinfo_flow_15_phase1_W_right.2" vType="truck" speedFactor="0.94" vaporized=""/>
    <tripinfo id="flow_3_phase1_N_right.2" depart="130.00" departLane="N_in_1" departPos="63.10" departSpeed="7.48" departDelay="0.11" arrival="156.00" arrivalLane="W_out_0" arrivalPos="189.60" arrivalSpeed="14.84" duration="26.00" routeLength="325.13" waitingTime="0.00" waitingCount="0" stopTime="0.00" timeLoss="3.21" rerouteNo="0" devices="vehroute_flow_3_phase1_N_right.2 tripinfo_flow_3_phase1_N_right.2" vType="moto" speedFactor="1.10" vaporized=""/>
    <tripinfo id="flow_1_phase1_N_straight.5" depart="129.00" departLane="N_in_1" departPos="74.60" departSpeed="10.27" departDelay="0.60" arrival="159.00" arrivalLane="S_out_0" arrivalPos="189.60" arrivalSpeed="11.81" duration="30.00" routeLength="325.40" waitingTime="0.00" waitingCount="0" stopTime="0.00" timeLoss="3.85" rerouteNo="0" devices="vehroute_flow_1_phase1_N_straight.5 tripinfo_flow_1_phase1_N_straight.5" vType="moto" speedFactor="0.90" vaporized=""/>
    <tripinfo id="flow_6_phase1_S_left.2" depart="128.00" departLane="S_in_1" departPos="124.88" departSpeed="0.01" departDelay="0.88" arrival="160.00" arrivalLane="W_out_1" arrivalPos="189.60" arrivalSpeed="14.74" duration="32.00" routeLength="273.67" waitingTime="5.00" waitingCount="1" stopTime="0.00" timeLoss="12.87" rerouteNo="0" devices="vehroute_flow_6_phase1_S_left.2 tripinfo_flow_6_phase1_S_left.2" vType="moto" speedFactor="1.07" vaporized=""/>
    <tripinfo id="flow_9_phase1_E_straight.5" depart="123.00" departLane="E_in_0" departPos="128.04" departSpeed="5.58" departDelay="0.67" arrival="174.00" arrivalLane="W_out_0" arrivalPos="189.60" arrivalSpeed="13.02" duration="51.00" routeLength="271.96" waitingTime="24.00" waitingCount="1" stopTime="0.00" timeLoss="31.74" rerouteNo="0" devices="vehroute_flow_9_phase1_E_straight.5 tripinfo_flow_9_phase1_E_straight.5" vType="moto" speedFactor="1.03" vaporized=""/>
    <tripinfo id="flow_11_phase1_E_right.2" depart="124.00" departLane="E_in_0" departPos="125.76" departSpeed="5.48" departDelay="0.54" arrival="174.00" arrivalLane="N_out_0" arrivalPos="189.60" arrivalSpeed="14.96" duration="50.00" routeLength="262.47" waitingTime="23.00" waitingCount="1" stopTime="0.00" timeLoss="32.33" rerouteNo="0" devices="vehroute_flow_11_phase1_E_right.2 tripinfo_flow_11_phase1_E_right.2" vType="moto" speedFactor="1.14" vaporized=""/>
    <tripinfo id="flow_12_phase1_E_uturn.1" depart="126.00" departLane="E_in_0" departPos="31.76" departSpeed="12.89" departDelay="0.96" arrival="177.00" arrivalLane="E_out_1" arrivalPos="189.60" arrivalSpeed="14.05" duration="51.00" routeLength="352.11" waitingTime="14.00" waitingCount="1" stopTime="0.00" timeLoss="24.44" rerouteNo="0" devices="vehroute_flow_12_phase1_E_uturn.1 tripinfo_flow_12_phase1_E_uturn.1" vType="moto" speedFactor="1.03" vaporized=""/>
    <tripinfo id="flow_16_phase1_W_uturn.1" depart="126.00" departLane="W_in_1" departPos="89.17" departSpeed="9.90" departDelay="0.21" arrival="178.00" arrivalLane="W_out_1" arrivalPos="189.60" arrivalSpeed="12.09" duration="52.00" routeLength="294.70" waitingTime="17.00" waitingCount="1" stopTime="0.00" timeLoss="26.51" rerouteNo="0" devices="vehroute_flow_16_phase1_W_uturn.1 tripinfo_flow_16_phase1_W_uturn.1" vType="truck" speedFactor="0.89" vaporized=""/>
    <tripinfo id="flow_13_phase1_W_straight.5" depart="128.00" departLane="W_in_1" departPos="21.68" departSpeed="5.95" departDelay="0.86" arrival="180.00" arrivalLane="E_out_1" arrivalPos="189.60" arrivalSpeed="14.34" duration="52.00" routeLength="378.32" waitingTime="9.00" waitingCount="1" stopTime="0.00" timeLoss="25.09" rerouteNo="0" devices="vehroute_flow_13_phase1_W_straight.5 tripinfo_flow_13_phase1_W_straight.5" vType="moto" speedFactor="1.04" vaporized=""/>
    <tripinfo id="flow_13_phase1_W_straight.4" depart="102.00" departLane="W_in_0" departPos="26.76" departSpeed="8.62" departDelay="0.28" arrival="181.00" arrivalLane="E_out_0" arrivalPos="189.60" arrivalSpeed="11.41" duration="79.00" routeLength="373.24" waitingTime="37.00" waitingCount="1" stopTime="0.00" timeLoss="47.21" rerouteNo="0" devices="vehroute_flow_13_phase1_W_straight.4 tripinfo_flow_13_phase1_W_straight.4" vType="bus" speedFactor="0.87" vaporized=""/>
    <tripinfo id="flow_10_phase1_E_left.2" depart="128.00" departLane="E_in_1" departPos="92.22" departSpeed="0.19" departDelay="0.70" arrival="183.00" arrivalLane="S_out_1" arrivalPos="189.60" arrivalSpeed="14.71" duration="55.00" routeLength="306.33" waitingTime="23.00" waitingCount="2" stopTime="0.00" timeLoss="34.48" rerouteNo="0" devices="vehroute_flow_10_phase1_E_left.2 tripinfo_flow_10_phase1_E_left.2" vType="moto" speedFactor="1.14" vaporized=""/>
    <tripinfo id="flow_9_phase1_E_straight.6" depart="147.00" departLane="E_in_1" departPos="84.30" departSpeed="10.26" departDelay="0.20" arrival="183.00" arrivalLane="W_out_0" arrivalPos="189.60" arrivalSpeed="13.69" duration="36.00" routeLength="315.70" waitingTime="1.00" waitingCount="1" stopTime="0.00" timeLoss="12.83" rerouteNo="0" devices="vehroute_flow_9_phase1_E_straight.6 tripinfo_flow_9_phase1_E_straight.6" vType="moto" speedFactor="1.02" vaporized=""/>
    <tripinfo id="flow_5_phase1_S_straight.6" depart="151.00" departLane="S_in_1" departPos="29.88" departSpeed="12.24" departDelay="0.18" arrival="186.00" arrivalLane="N_out_0" arrivalPos="189.60" arrivalSpeed="14.90" duration="35.00" routeLength="370.12" waitingTime="4.00" waitingCount="1" stopTime="0.00" timeLoss="10.49" rerouteNo="0" devices="vehroute_flow_5_phase1_S_straight.6 tripinfo_flow_5_phase1_S_straight.6" vType="moto" speedFactor="1.10" vaporized=""/>
    <tripinfo id="flow_14_phase1_W_left.2" depart="131.00" departLane="W_in_1" departPos="84.66" departSpeed="1.91" departDelay="0.02" arrival="187.00" arrivalLane="N_out_1" arrivalPos="189.60" arrivalSpeed="12.28" duration="56.00" routeLength="313.89" waitingTime="16.00" waitingCount="2" stopTime="0.00" timeLoss="29.95" rerouteNo="0" devices="vehroute_flow_14_phase1_W_left.2 tripinfo_flow_14_phase1_W_left.2" vType="car" speedFactor="0.90" vaporized=""/>
    <tripinfo id="flow_1_phase1_N_straight.6" depart="155.00" departLane="N_in_0" departPos="42.85" departSpeed="1.33" departDelay="0.91" arrival="187.00" arrivalLane="S_out_0" arrivalPos="189.60" arrivalSpeed="12.50" duration="32.00" routeLength="357.15" waitingTime="0.00" waitingCount="0" stopTime="0.00" timeLoss="5.70" rerouteNo="0" devices="vehroute_flow_1_phase1_N_straight.6 tripinfo_flow_1_phase1_N_straight.6" vType="car" speedFactor="0.98" vaporized=""/>
    <tripinfo id="flow_1_phase1_N_straight.7" depart="180.00" departLane="N_in_0" departPos="174.06" departSpeed="3.26" departDelay="0.23" arrival="198.00" arrivalLane="S_out_0" arrivalPos="189.60" arrivalSpeed="13.72" duration="18.00" routeLength="225.94" waitingTime="0.00" waitingCount="0" stopTime="0.00" timeLoss="2.31" rerouteNo="0" devices="vehroute_flow_1_phase1_N_straight.7 tripinfo_flow_1_phase1_N_straight.7" vType="moto" speedFactor="1.06" vaporized=""/>
    <tripinfo id="flow_5_phase1_S_straight.7" depart="176.00" departLane="S_in_0" departPos="161.31" departSpeed="3.15" departDelay="0.05" arrival="200.00" arrivalLane="N_out_0" arrivalPos="189.60" arrivalSpeed="11.93" duration="24.00" routeLength="238.69" waitingTime="0.00" waitingCount="0" stopTime="0.00" timeLoss="4.20" rerouteNo="0" devices="vehroute_flow_5_phase1_S_straight.7 tripinfo_flow_5_phase1_S_straight.7" vType="bus" speedFactor="0.90" vaporized=""/>
    <tripinfo id="flow_7_phase1_S_right.3" depart="186.00" departLane="S_in_1" departPos="76.47" departSpeed="11.77" departDelay="0.78" arrival="212.00" arrivalLane="E_out_0" arrivalPos="189.60" arrivalSpeed="13.74" duration="26.00" routeLength="311.76" waitingTime="0.00" waitingCount="0" stopTime="0.00" timeLoss="3.22" rerouteNo="0" devices="vehroute_flow_7_phase1_S_right.3 tripinfo_flow_7_phase1_S_right.3" vType="moto" speedFactor="1.07" vaporized=""/>