<?xml version="1.0" encoding="UTF-8"?>

<!-- generated on 2025-12-12 07:57:33 by Eclipse SUMO sumo Version 1.18.0
<configuration xmlns:xsi="http://www.w3.org/2001/XMLSchema-instance" xsi:noNamespaceSchemaLocation="http://sumo.dlr.de/xsd/sumoConfiguration.xsd">

    <input>
        <net-file value="/workspace/nets/60p2k/net.net.xml"/>
        <route-files value="/workspace/nets/60p2k/route_temp_184_136390791920128_51269849.rou.xml"/>
    </input>

    <output>
        <summary-output value="../result_random/60p2k_e/llirl/summary_ep_1.xml"/>
        <tripinfo-output value="../result_random/60p2k_e/llirl/tripinfo_ep_1.xml"/>
        <vehroute-output value="../result_random/60p2k_e/llirl/vehroute_ep_1.xml"/>
    </output>

    <time>
        <begin value="0"/>
    </time>

    <report>
        <verbose value="true"/>
        <no-step-log value="true"/>
    </report>

    <traci_server>
        <remote-port value="50753"/>
    </traci_server>

    <gui_only>
        <gui-settings-file value="/workspace/nets/60p2k/gui-settings.xml"/>
        <quit-on-end value="true"/>
    </gui_only>

</configuration>
-->

<tripinfos xmlns:xsi="http://www.w3.org/2001/XMLSchema-instance" xsi:noNamespaceSchemaLocation="http://sumo.dlr.de/xsd/tripinfo_file.xsd">
    <tripinfo id="flow_3_phase1_N_right.0" depart="0.00" departLane="N_in_0" departPos="103.38" departSpeed="3.75" departDelay="0.00" arrival="24.00" arrivalLane="W_out_0" arrivalPos="189.60" arrivalSpeed="14.93" duration="24.00" routeLength="284.85" waitingTime="0.00" waitingCount="0" stopTime="0.00" timeLoss="4.48" rerouteNo="0" devices="vehroute_flow_3_phase1_N_right.0 tripinfo_flow_3_phase1_N_right.0" vType="car" speedFactor="1.09" vaporized=""/>
    <tripinfo id="flow_6_phase1_S_left.0" depart="0.00" departLane="S_in_1" departPos="166.01" departSpeed="0.74" departDelay="0.00" arrival="25.00" arrivalLane="W_out_1" arrivalPos="189.60" arrivalSpeed="11.84" duration="25.00" routeLength="232.54" waitingTime="0.00" waitingCount="0" stopTime="0.00" timeLoss="4.35" rerouteNo="0" devices="vehroute_flow_6_phase1_S_left.0 tripinfo_flow_6_phase1_S_left.0" vType="moto" speedFactor="0.88" vaporized=""/>
    <tripinfo id="flow_16_phase1_W_uturn.0" depart="0.00" departLane="S_in_1" departPos="126.68" departSpeed="1.28" departDelay="0.00" arrival="25.00" arrivalLane="S_out_1" arrivalPos="189.60" arrivalSpeed="13.18" duration="25.00" routeLength="257.19" waitingTime="0.00" waitingCount="0" stopTime="0.00" timeLoss="6.35" rerouteNo="0" devices="vehroute_flow_16_phase1_W_uturn.0 tripinfo_flow_16_phase1_W_uturn.0" vType="moto" speedFactor="1.04" vaporized=""/>
    <tripinfo id="flow_5_phase1_S_straight.0" depart="0.00" departLane="S_in_1" departPos="107.37" departSpeed="7.21" departDelay="0.00" arrival="26.00" arrivalLane="N_out_0" arrivalPos="189.60" arrivalSpeed="15.37" duration="26.00" routeLength="292.63" waitingTime="0.00" waitingCount="0" stopTime="0.00" timeLoss="7.44" rerouteNo="0" devices="vehroute_flow_5_phase1_S_straight.0 tripinfo_flow_5_phase1_S_straight.0" vType="moto" speedFactor="1.15" vaporized=""/>
    <tripinfo id="flow_4_phase1_N_uturn.0" depart="0.00" departLane="N_in_1" departPos="127.60" departSpeed="0.08" departDelay="0.00" arrival="31.00" arrivalLane="N_out_1" arrivalPos="189.60" arrivalSpeed="11.84" duration="31.00" routeLength="256.27" waitingTime="1.00" waitingCount="1" stopTime="0.00" timeLoss="9.38" rerouteNo="0" devices="vehroute_flow_4_phase1_N_uturn.0 tripinfo_flow_4_phase1_N_uturn.0" vType="car" speedFactor="0.92" vaporized=""/>
    <tripinfo id="flow_10_phase1_E_left.0" depart="0.00" departLane="S_in_0" departPos="44.88" departSpeed="7.69" departDelay="0.00" arrival="31.00" arrivalLane="E_out_0" arrivalPos="189.60" arrivalSpeed="13.76" duration="31.00" routeLength="343.35" waitingTime="0.00" waitingCount="0" stopTime="0.00" timeLoss="5.25" rerouteNo="0" devices="vehroute_flow_10_phase1_E_left.0 tripinfo_flow_10_phase1_E_left.0" vType="truck" speedFactor="1.02" vaporized=""/>
    <tripinfo id="flow_12_phase1_E_uturn.0" depart="0.00" departLane="E_in_0" departPos="5.65" departSpeed="13.76" departDelay="0.00" arrival="36.00" arrivalLane="E_out_1" arrivalPos="189.60" arrivalSpeed="14.20" duration="36.00" routeLength="378.22" waitingTime="2.00" waitingCount="1" stopTime="0.00" timeLoss="8.16" rerouteNo="0" devices="vehroute_flow_12_phase1_E_uturn.0 tripinfo_flow_12_phase1_E_uturn.0" vType="moto" speedFactor="1.03" vaporized=""/>
    <tripinfo id="flow_7_phase1_S_right.0" depart="0.00" departLane="W_in_0" departPos="8.76" departSpeed="8.07" departDelay="0.00" arrival="38.00" arrivalLane="E_out_0" arrivalPos="189.60" arrivalSpeed="11.22" duration="38.00" routeLength="391.24" waitingTime="0.00" waitingCount="0" stopTime="0.00" timeLoss="4.80" rerouteNo="0" devices="vehroute_flow_7_phase1_S_right.0 tripinfo_flow_7_phase1_S_right.0" vType="container" speedFactor="0.85" vaporized=""/>
    <tripinfo id="flow_14_phase1_W_left.0" depart="0.00" departLane="E_in_1" departPos="42.31" departSpeed="3.71" departDelay="0.00" arrival="38.00" arrivalLane="W_out_1" arrivalPos="189.60" arrivalSpeed="12.97" duration="38.00" routeLength="357.69" waitingTime="1.00" waitingCount="1" stopTime="0.00" timeLoss="11.78" rerouteNo="0" devices="vehroute_flow_14_phase1_W_left.0 tripinfo_flow_14_phase1_W_left.0" vType="moto" speedFactor="1.01" vaporized=""/>
    <tripinfo id="flow_9_phase1_E_straight.1" depart="13.00" departLane="E_in_0" departPos="131.13" departSpeed="9.54" departDelay="0.09" arrival="39.00" arrivalLane="W_out_1" arrivalPos="189.60" arrivalSpeed="15.26" duration="26.00" routeLength="268.87" waitingTime="0.00" waitingCount="0" stopTime="0.00" timeLoss="8.81" rerouteNo="0" devices="vehroute_flow_9_phase1_E_straight.1 tripinfo_flow_9_phase1_E_straight.1" vType="moto" speedFactor="1.16" vaporized=""/>
    <tripinfo id="flow_9_phase1_E_straight.0" depart="0.00" departLane="E_in_0" departPos="168.29" departSpeed="9.83" departDelay="0.00" arrival="41.00" arrivalLane="W_out_0" arrivalPos="189.60" arrivalSpeed="12.31" duration="41.00" routeLength="231.71" waitingTime="12.00" waitingCount="1" stopTime="0.00" timeLoss="21.95" rerouteNo="0" devices="vehroute_flow_9_phase1_E_straight.0 tripinfo_flow_9_phase1_E_straight.0" vType="truck" speedFactor="0.90" vaporized=""/>
    <tripinfo id="flow_8_phase1_S_uturn.0" depart="0.00" departLane="W_in_0" departPos="120.11" departSpeed="4.48" departDelay="0.00" arrival="42.00" arrivalLane="N_out_1" arrivalPos="189.60" arrivalSpeed="13.75" duration="42.00" routeLength="278.44" waitingTime="12.00" waitingCount="2" stopTime="0.00" timeLoss="22.01" rerouteNo="0" devices="vehroute_flow_8_phase1_S_uturn.0 tripinfo_flow_8_phase1_S_uturn.0" vType="moto" speedFactor="1.05" vaporized=""/>
    <tripinfo id="flow_11_phase1_E_right.0" depart="0.00" departLane="E_in_1" departPos="144.95" departSpeed="4.02" departDelay="0.00" arrival="42.00" arrivalLane="N_out_0" arrivalPos="189.60" arrivalSpeed="12.91" duration="42.00" routeLength="243.28" waitingTime="10.00" waitingCount="1" stopTime="0.00" timeLoss="22.28" rerouteNo="0" devices="vehroute_flow_11_phase1_E_right.0 tripinfo_flow_11_phase1_E_right.0" vType="bus" speedFactor="0.96" vaporized=""/>
    <tripinfo id="flow_2_phase1_N_left.0" depart="0.00" departLane="W_in_1" departPos="8.27" departSpeed="8.33" departDelay="0.00" arrival="45.00" arrivalLane="W_out_1" arrivalPos="189.60" arrivalSpeed="13.71" duration="45.00" routeLength="375.60" waitingTime="5.00" waitingCount="2" stopTime="0.00" timeLoss="17.10" rerouteNo="0" devices="vehroute_flow_2_phase1_N_left.0 tripinfo_flow_2_phase1_N_left.0" vType="moto" speedFactor="1.02" vaporized=""/>
    <tripinfo id="flow_5_phase1_S_straight.1" depart="14.00" departLane="S_in_1" departPos="31.93" departSpeed="9.28" departDelay="0.74" arrival="46.00" arrivalLane="N_out_0" arrivalPos="189.60" arrivalSpeed="15.04" duration="32.00" routeLength="368.07" waitingTime="0.00" waitingCount="0" stopTime="0.00" timeLoss="8.84" rerouteNo="0" devices="vehroute_flow_5_phase1_S_straight.1 tripinfo_flow_5_phase1_S_straight.1" vType="moto" speedFactor="1.19" vaporized=""/>
    <tripinfo id="flow_15_phase1_W_right.0" depart="0.00" departLane="W_in_1" departPos="45.77" departSpeed="6.73" departDelay="0.00" arrival="47.00" arrivalLane="N_out_1" arrivalPos="189.60" arrivalSpeed="11.04" duration="47.00" routeLength="352.78" waitingTime="6.00" waitingCount="2" stopTime="0.00" timeLoss="15.68" rerouteNo="0" devices="vehroute_flow_15_phase1_W_right.0 tripinfo_flow_15_phase1_W_right.0" vType="moto" speedFactor="0.85" vaporized=""/>
    <tripinfo id="flow_13_phase1_W_straight.0" depart="0.00" departLane="S_in_0" departPos="77.99" departSpeed="3.79" departDelay="0.00" arrival="58.00" arrivalLane="S_out_0" arrivalPos="189.60" arrivalSpeed="11.32" duration="58.00" routeLength="305.88" waitingTime="14.00" waitingCount="1" stopTime="0.00" timeLoss="29.51" rerouteNo="0" devices="vehroute_flow_13_phase1_W_straight.0 tripinfo_flow_13_phase1_W_straight.0" vType="container" speedFactor="0.82" vaporized=""/>
    <tripinfo id="flow_1_phase1_N_straight.0" depart="0.00" departLane="S_in_0" departPos="8.62" departSpeed="8.51" departDelay="0.00" arrival="61.00" arrivalLane="S_out_1" arrivalPos="189.60" arrivalSpeed="11.78" duration="61.00" routeLength="375.25" waitingTime="12.00" waitingCount="1" stopTime="0.00" timeLoss="27.82" rerouteNo="0" devices="vehroute_flow_1_phase1_N_straight.0 tripinfo_flow_1_phase1_N_straight.0" vType="bus" speedFactor="0.86" vaporized=""/>
    <tripinfo id="flow_9_phase1_E_straight.2" depart="26.00" departLane="E_in_1" departPos="52.87" departSpeed="0.38" departDelay="0.18" arrival="63.00" arrivalLane="W_out_0" arrivalPos="189.60" arrivalSpeed="12.52" duration="37.00" routeLength="347.13" waitingTime="0.00" waitingCount="0" stopTime="0.00" timeLoss="11.01" rerouteNo="0" devices="vehroute_flow_9_phase1_E_straight.2 tripinfo_flow_9_phase1_E_straight.2" vType="moto" speedFactor="0.99" vaporized=""/>
    <tripinfo id="flow_11_phase1_E_right.1" depart="33.00" departLane="E_in_0" departPos="73.90" departSpeed="8.86" departDelay="0.43" arrival="63.00" arrivalLane="N_out_0" arrivalPos="189.60" arrivalSpeed="13.79" duration="30.00" routeLength="314.33" waitingTime="0.00" waitingCount="0" stopTime="0.00" timeLoss="7.14" rerouteNo="0" devices="vehroute_flow_11_phase1_E_right.1 tripinfo_flow_11_phase1_E_right.1" vType="moto" speedFactor="1.04" vaporized=""/>
    <tripinfo id="flow_10_phase1_E_left.1" depart="34.00" departLane="S_in_0" departPos="166.00" departSpeed="1.12" departDelay="0.42" arrival="63.00" arrivalLane="E_out_0" arrivalPos="189.60" arrivalSpeed="9.93" duration="29.00" routeLength="222.23" waitingTime="0.00" waitingCount="0" stopTime="0.00" timeLoss="6.92" rerouteNo="0" devices="vehroute_flow_10_phase1_E_left.1 tripinfo_flow_10_phase1_E_left.1" vType="truck" speedFactor="0.77" vaporized=""/>
    <tripinfo id="flow_14_phase1_W_left.1" depart="35.00" departLane="E_in_0" departPos="86.42" departSpeed="7.58" departDelay="0.45" arrival="63.00" arrivalLane="W_out_1" arrivalPos="189.60" arrivalSpeed="12.19" duration="28.00" routeLength="313.58" waitingTime="0.00" waitingCount="0" stopTime="0.00" timeLoss="2.89" rerouteNo="0" devices="vehroute_flow_14_phase1_W_left.1 tripinfo_flow_14_phase1_W_left.1" vType="container" speedFactor="0.91" vaporized=""/>
    <tripinfo id="flow_7_phase1_S_right.1" depart="33.00" departLane="W_in_1" departPos="128.68" departSpeed="2.32" departDelay="0.43" arrival="65.00" arrivalLane="E_out_0" arrivalPos="189.60" arrivalSpeed="10.87" duration="32.00" routeLength="271.32" waitingTime="0.00" waitingCount="0" stopTime="0.00" timeLoss="6.83" rerouteNo="0" devices="vehroute_flow_7_phase1_S_right.1 tripinfo_flow_7_phase1_S_right.1" vType="container" speedFactor="0.78" vaporized=""/>
    <tripinfo id="flow_2_phase1_N_left.1" depart="33.00" departLane="W_in_1" departPos="66.71" departSpeed="11.27" departDelay="0.24" arrival="70.00" arrivalLane="W_out_1" arrivalPos="189.60" arrivalSpeed="15.31" duration="37.00" routeLength="317.16" waitingTime="1.00" waitingCount="1" stopTime="0.00" timeLoss="14.90" rerouteNo="0" devices="vehroute_flow_2_phase1_N_left.1 tripinfo_flow_2_phase1_N_left.1" vType="moto" speedFactor="1.12" vaporized=""/>
    <tripinfo id="flow_9_phase1_E_straight.3" depart="39.00" departLane="E_in_0" departPos="56.18" departSpeed="6.79" departDelay="0.28" arrival="70.00" arrivalLane="W_out_0" arrivalPos="189.60" arrivalSpeed="11.46" duration="31.00" routeLength="343.82" waitingTime="0.00" waitingCount="0" stopTime="0.00" timeLoss="1.85" rerouteNo="0" devices="vehroute_flow_9_phase1_E_straight.3 tripinfo_flow_9_phase1_E_straight.3" vType="bus" speedFactor="0.85" vaporized=""/>
    <tripinfo id="flow_15_phase1_W_right.1" depart="33.00" departLane="W_in_1" departPos="110.92" departSpeed="2.76" departDelay="0.08" arrival="72.00" arrivalLane="N_out_1" arrivalPos="189.60" arrivalSpeed="14.67" duration="39.00" routeLength="287.63" waitingTime="6.00" waitingCount="1" stopTime="0.00" timeLoss="18.45" rerouteNo="0" devices="vehroute_flow_15_phase1_W_right.1 tripinfo_flow_15_phase1_W_right.1" vType="moto" speedFactor="1.08" vaporized=""/>
    <tripinfo id="flow_13_phase1_W_straight.1" depart="14.00" departLane="S_in_1" departPos="121.65" departSpeed="2.86" departDelay="0.58" arrival="73.00" arrivalLane="S_out_1" arrivalPos="189.60" arrivalSpeed="15.56" duration="59.00" routeLength="262.22" waitingTime="21.00" waitingCount="2" stopTime="0.00" timeLoss="41.07" rerouteNo="0" devices="vehroute_flow_13_phase1_W_straight.1 tripinfo_flow_13_phase1_W_straight.1" vType="car" speedFactor="1.12" vaporized=""/>
    <tripinfo id="flow_5_phase1_S_straight.3" depart="40.00" departLane="S_in_0" departPos="132.62" departSpeed="5.13" departDelay="0.22" arrival="74.00" arrivalLane="N_out_0" arrivalPos="189.60" arrivalSpeed="14.53" duration="34.00" routeLength="267.38" waitingTime="8.00" waitingCount="1" stopTime="0.00" timeLoss="15.87" rerouteNo="0" devices="vehroute_flow_5_phase1_S_straight.3 tripinfo_flow_5_phase1_S_straight.3" vType="moto" speedFactor="1.08" vaporized=""/>
    <tripinfo id="flow_3_phase1_N_right.1" depart="35.00" departLane="N_in_0" departPos="93.41" departSpeed="11.32" departDelay="0.74" arrival="77.00" arrivalLane="W_out_0" arrivalPos="189.60" arrivalSpeed="10.96" duration="42.00" routeLength="294.82" waitingTime="10.00" waitingCount="1" stopTime="0.00" timeLoss="16.42" rerouteNo="0" devices="vehroute_flow_3_phase1_N_right.1 tripinfo_flow_3_phase1_N_right.1" vType="moto" speedFactor="0.88" vaporized=""/>
    <tripinfo id="flow_1_phase1_N_straight.1" depart="14.00" departLane="S_in_1" departPos="58.36" departSpeed="11.64" departDelay="0.45" arrival="81.00" arrivalLane="S_out_0" arrivalPos="189.60" arrivalSpeed="11.08" duration="67.00" routeLength="325.51" waitingTime="18.00" waitingCount="2" stopTime="0.00" timeLoss="38.07" rerouteNo="0" devices="vehroute_flow_1_phase1_N_straight.1 tripinfo_flow_1_phase1_N_straight.1" vType="moto" speedFactor="0.87" vaporized=""/>
    <tripinfo id="flow_5_phase1_S_straight.2" depart="27.00" departLane="S_in_1" departPos="12.70" departSpeed="12.41" departDelay="0.48" arrival="82.00" arrivalLane="N_out_0" arrivalPos="189.60" arrivalSpeed="12.89" duration="55.00" routeLength="387.30" waitingTime="13.00" waitingCount="1" stopTime="0.00" timeLoss="25.82" rerouteNo="0" devices="vehroute_flow_5_phase1_S_straight.2 tripinfo_flow_5_phase1_S_straight.2" vType="moto" speedFactor="0.96" vaporized=""/>
    <tripinfo id="flow_13_phase1_W_straight.2" depart="27.00" departLane="S_in_1" departPos="59.51" departSpeed="13.32" departDelay="0.17" arrival="84.00" arrivalLane="S_out_1" arrivalPos="189.60" arrivalSpeed="12.96" duration="57.00" routeLength="324.36" waitingTime="9.00" waitingCount="1" stopTime="0.00" timeLoss="31.59" rerouteNo="0" devices="vehroute_flow_13_phase1_W_straight.2 tripinfo_flow_13_phase1_W_straight.2" vType="bus" speedFactor="0.97" vaporized=""/>
    <tripinfo id="flow_1_phase1_N_straight.3" depart="41.00" departLane="S_in_0" departPos="125.48" departSpeed="7.46" departDelay="0.35" arrival="86.00" arrivalLane="S_out_1" arrivalPos="189.60" arrivalSpeed="14.77" duration="45.00" routeLength="258.39" waitingTime="15.00" waitingCount="1" stopTime="0.00" timeLoss="27.93" rerouteNo="0" devices="vehroute_flow_1_phase1_N_straight.3 tripinfo_flow_1_phase1_N_straight.3" vType="moto" speedFactor="1.20" vaporized=""/>
    <tripinfo id="flow_6_phase1_S_left.1" depart="34.00" departLane="S_in_1" departPos="4.52" departSpeed="5.31" departDelay="0.47" arrival="88.00" arrivalLane="W_out_1" arrivalPos="189.60" arrivalSpeed="13.44" duration="54.00" routeLength="394.03" waitingTime="7.00" waitingCount="1" stopTime="0.00" timeLoss="26.37" rerouteNo="0" devices="vehroute_flow_6_phase1_S_left.1 tripinfo_flow_6_phase1_S_left.1" vType="moto" speedFactor="1.05" vaporized=""/>
    <tripinfo id="flow_1_phase1_N_straight.2" depart="28.00" departLane="S_in_1" departPos="8.88" departSpeed="1.11" departDelay="0.90" arrival="90.00" arrivalLane="S_out_1" arrivalPos="189.60" arrivalSpeed="11.81" duration="62.00" routeLength="374.99" waitingTime="8.00" waitingCount="1" stopTime="0.00" timeLoss="31.17" rerouteNo="0" devices="vehroute_flow_1_phase1_N_straight.2 tripinfo_flow_1_phase1_N_straight.2" vType="moto" speedFactor="0.93" vaporized=""/>
    <tripinfo id="flow_3_phase1_N_right.2" depart="69.00" departLane="N_in_0" departPos="149.69" departSpeed="1.99" departDelay="0.47" arrival="90.00" arrivalLane="W_out_0" arrivalPos="189.60" arrivalSpeed="14.96" duration="21.00" routeLength="238.54" waitingTime="0.00" waitingCount="0" stopTime="0.00" timeLoss="4.45" rerouteNo="0" devices="vehroute_flow_3_phase1_N_right.2 tripinfo_flow_3_phase1_N_right.2" vType="moto" speedFactor="1.10" vaporized=""/>
    <tripinfo id="flow_13_phase1_W_straight.3" depart="41.00" departLane="S_in_1" departPos="23.57" departSpeed="4.10" departDelay="0.75" arrival="92.00" arrivalLane="S_out_1" arrivalPos="189.60" arrivalSpeed="14.29" duration="51.00" routeLength="360.30" waitingTime="6.00" waitingCount="1" stopTime="0.00" timeLoss="24.36" rerouteNo="0" devices="vehroute_flow_13_phase1_W_straight.3 tripinfo_flow_13_phase1_W_straight.3" vType="car" speedFactor="1.05" vaporized=""/>
    <tripinfo id="flow_1_phase1_N_straight.4" depart="55.00" departLane="S_in_1" departPos="65.33" departSpeed="11.56" departDelay="0.80" arrival="98.00" arrivalLane="S_out_1" arrivalPos="189.60" arrivalSpeed="12.22" duration="43.00" routeLength="318.54" waitingTime="0.00" waitingCount="0" stopTime="0.00" timeLoss="17.26" rerouteNo="0" devices="vehroute_flow_1_phase1_N_straight.4 tripinfo_flow_1_phase1_N_straight.4" vType="truck" speedFactor="0.92" vaporized=""/>
    <tripinfo id="flow_4_phase1_N_uturn.1" depart="67.00" departLane="N_in_1" departPos="65.57" departSpeed="2.07" departDelay="0.80" arrival="100.00" arrivalLane="N_out_1" arrivalPos="189.60" arrivalSpeed="11.48" duration="33.00" routeLength="318.30" waitingTime="0.00" waitingCount="0" stopTime="0.00" timeLoss="6.17" rerouteNo="0" devices="vehroute_flow_4_phase1_N_uturn.1 tripinfo_flow_4_phase1_N_uturn.1" vType="moto" speedFactor="0.89" vaporized=""/>
    <tripinfo id="flow_13_phase1_W_straight.4" depart="54.00" departLane="S_in_0" departPos="160.30" departSpeed="3.15" departDelay="0.34" arrival="103.00" arrivalLane="S_out_0" arrivalPos="189.60" arrivalSpeed="11.63" duration="49.00" routeLength="223.57" waitingTime="14.00" waitingCount="4" stopTime="0.00" timeLoss="28.91" rerouteNo="0" devices="vehroute_flow_13_phase1_W_straight.4 tripinfo_flow_13_phase1_W_straight.4" vType="bus" speedFactor="0.87" vaporized=""/>
    <tripinfo id="flow_10_phase1_E_left.2" depart="68.00" departLane="S_in_1" departPos="137.11" departSpeed="2.21" departDelay="0.84" arrival="105.00" arrivalLane="E_out_0" arrivalPos="189.60" arrivalSpeed="13.60" duration="37.00" routeLength="251.12" waitingTime="6.00" waitingCount="2" stopTime="0.00" timeLoss="18.48" rerouteNo="0" devices="vehroute_flow_10_phase1_E_left.2 tripinfo_flow_10_phase1_E_left.2" vType="moto" speedFactor="1.04" vaporized=""/>
    <tripinfo id="flow_13_phase1_W_straight.6" depart="81.00" departLane="S_in_0" departPos="178.36" departSpeed="3.23" departDelay="0.50" arrival="106.00" arrivalLane="S_out_1" arrivalPos="189.60" arrivalSpeed="12.30" duration="25.00" routeLength="205.51" waitingTime="2.00" waitingCount="1" stopTime="0.00" timeLoss="8.67" rerouteNo="0" devices="vehroute_flow_13_phase1_W_straight.6 tripinfo_flow_13_phase1_W_straight.6" vType="car" speedFactor="0.98" vaporized=""/>
    <tripinfo id="flow_16_phase1_W_uturn.1" depart="67.00" departLane="S_in_1" departPos="78.09" departSpeed="6.03" departDelay="0.64" arrival="112.00" arrivalLane="S_out_0" arrivalPos="189.60" arrivalSpeed="12.24" duration="45.00" routeLength="305.78" waitingTime="1.00" waitingCount="1" stopTime="0.00" timeLoss="18.86" rerouteNo="0" devices="vehroute_flow_16_phase1_W_uturn.1 tripinfo_flow_16_phase1_W_uturn.1" vType="truck" speedFactor="0.89" vaporized=""/>
    <tripinfo id="flow_1_phase1_N_straight.5" depart="68.00" departLane="S_in_1" departPos="74.60" departSpeed="4.21" departDelay="0.26" arrival="114.00" arrivalLane="S_out_1" arrivalPos="189.60" arrivalSpeed="14.21" duration="46.00" routeLength="309.27" waitingTime="0.00" waitingCount="0" stopTime="0.00" timeLoss="23.10" rerouteNo="0" devices="vehroute_flow_1_phase1_N_straight.5 tripinfo_flow_1_phase1_N_straight.5" vType="moto" speedFactor="1.07" vaporized=""/>
    <tripinfo id="flow_5_phase1_S_straight.4" depart="54.00" departLane="S_in_0" departPos="8.08" departSpeed="6.48" departDelay="0.96" arrival="115.00" arrivalLane="N_out_0" arrivalPos="189.60" arrivalSpeed="13.05" duration="61.00" routeLength="391.92" waitingTime="1.00" waitingCount="1" stopTime="0.00" timeLoss="31.88" rerouteNo="0" devices="vehroute_flow_5_phase1_S_straight.4 tripinfo_flow_5_phase1_S_straight.4" vType="container" speedFactor="0.97" vaporized=""/>
    <tripinfo id="flow_7_phase1_S_right.2" depart="66.00" departLane="W_in_1" departPos="19.51" departSpeed="9.11" departDelay="0.86" arrival="117.00" arrivalLane="E_out_0" arrivalPos="189.60" arrivalSpeed="15.24" duration="51.00" routeLength="380.49" waitingTime="18.00" waitingCount="1" stopTime="0.00" timeLoss="26.20" rerouteNo="0" devices="vehroute_flow_7_phase1_S_right.2 tripinfo_flow_7_phase1_S_right.2" vType="moto" speedFactor="1.14" vaporized=""/>
    <tripinfo id="flow_9_phase1_E_straight.5" depart="65.00" departLane="E_in_1" departPos="111.69" departSpeed="6.16" departDelay="0.46" arrival="118.00" arrivalLane="W_out_0" arrivalPos="189.60" arrivalSpeed="13.98" duration="53.00" routeLength="288.31" waitingTime="24.00" waitingCount="1" stopTime="0.00" timeLoss="31.98" rerouteNo="0" devices="vehroute_flow_9_phase1_E_straight.5 tripinfo_flow_9_phase1_E_straight.5" vType="moto" speedFactor="1.03" vaporized=""/>
    <tripinfo id="flow_7_phase1_S_right.3" depart="98.00" departLane="W_in_0" departPos="150.32" departSpeed="6.39" departDelay="0.28" arrival="119.00" arrivalLane="E_out_0" arrivalPos="189.60" arrivalSpeed="14.61" duration="21.00" routeLength="249.68" waitingTime="0.00" waitingCount="0" stopTime="0.00" timeLoss="3.40" rerouteNo="0" devices="vehroute_flow_7_phase1_S_right.3 tripinfo_flow_7_phase1_S_right.3" vType="moto" speedFactor="1.07" vaporized=""/>
    <tripinfo id="flow_11_phase1_E_right.2" depart="66.00" departLane="E_in_0" departPos="155.68" departSpeed="9.79" departDelay="0.87" arrival="121.00" arrivalLane="N_out_0" arrivalPos="189.60" arrivalSpeed="15.21" duration="55.00" routeLength="232.55" waitingTime="30.00" waitingCount="1" stopTime="0.00" timeLoss="38.73" rerouteNo="0" devices="vehroute_flow_11_phase1_E_right.2 tripinfo_flow_11_phase1_E_right.2" vType="emergency" speedFactor="1.10" vaporized=""/>
    <tripinfo id="flow_9_phase1_E_straight.4" depart="52.00" departLane="E_in_0" departPos="167.23" departSpeed="1.87" departDelay="0.37" arrival="123.00" arrivalLane="W_out_0" arrivalPos="189.60" arrivalSpeed="12.79" duration="71.00" routeLength="232.77" waitingTime="40.00" waitingCount="1" stopTime="0.00" timeLoss="53.34" rerouteNo="0" devices="vehroute_flow_9_phase1_E_straight.4 tripinfo_flow_9_phase1_E_straight.4" vType="bus" speedFactor="0.95" vaporized=""/>
    <tripinfo id="flow_12_phase1_E_uturn.1" depart="66.00" departLane="E_in_1" departPos="2.77" departSpeed="7.17" departDelay="0.03" arrival="124.00" arrivalLane="E_out_1" arrivalPos="189.60" arrivalSpeed="12.56" duration="58.00" routeLength="381.10" waitingTime="16.00" waitingCount="1" stopTime="0.00" timeLoss="27.65" rerouteNo="0" devices="vehroute_flow_12_phase1_E_uturn.1 tripinfo_flow_12_phase1_E_uturn.1" vType="truck" speedFactor="0.94" vaporized=""/>
    <tripinfo id="flow_9_phase1_E_straight.7" depart="91.00" departLane="E_in_0" departPos="16.04" departSpeed="5.65" departDelay="0.64" arrival="125.00" arrivalLane="W_out_0" arrivalPos="189.60" arrivalSpeed="13.94" duration="34.00" routeLength="383.96" waitingTime="0.00" waitingCount="0" stopTime="0.00" timeLoss="6.59" rerouteNo="0" devices="vehroute_flow_9_phase1_E_straight.7 tripinfo_flow_9_phase1_E_straight.7" vType="moto" speedFactor="1.01" vaporized=""/>
    <tripinfo id="flow_14_phase1_W_left.2" depart="70.00" departLane="E_in_0" departPos="42.85" departSpeed="1.22" departDelay="0.90" arrival="126.00" arrivalLane="W_out_1" arrivalPos="189.60" arrivalSpeed="12.12" duration="56.00" routeLength="357.15" waitingTime="15.00" waitingCount="1" stopTime="0.00" timeLoss="26.99" rerouteNo="0" devices="vehroute_flow_14_phase1_W_left.2 tripinfo_flow_14_phase1_W_left.2" vType="car" speedFactor="0.90" vaporized=""/>
    <tripinfo id="flow_9_phase1_E_straight.6" depart="78.00" departLane="E_in_1" departPos="60.83" departSpeed="2.77" departDelay="0.55" arrival="128.00" arrivalLane="W_out_1" arrivalPos="189.60" arrivalSpeed="13.64" duration="50.00" routeLength="339.17" waitingTime="11.00" waitingCount="1" stopTime="0.00" timeLoss="25.23" rerouteNo="0" devices="vehroute_flow_9_phase1_E_straight.6 tripinfo_flow_9_phase1_E_straight.6" vType="moto" speedFactor="1.02" vaporized=""/>
    <tripinfo id="flow_8_phase1_S_uturn.1" depart="67.00" departLane="W_in_1" departPos="174.17" departSpeed="9.40" departDelay="0.92" arrival="129.00" arrivalLane="N_out_1" arrivalPos="189.60" arrivalSpeed="13.01" duration="62.00" routeLength="224.38" waitingTime="36.00" waitingCount="2" stopTime="0.00" timeLoss="45.21" rerouteNo="0" devices="vehroute_flow_8_phase1_S_uturn.1 tripinfo_flow_8_phase1_S_uturn.1" vType="moto" speedFactor="1.03" vaporized=""/>
    <tripinfo id="flow_6_phase1_S_left.2" depart="68.00" departLane="S_in_1" departPos="63.10" departSpeed="6.55" departDelay="0.94" arrival="130.00" arrivalLane="W_out_1" arrivalPos="189.60" arrivalSpeed="15.34" duration="62.00" routeLength="335.45" waitingTime="15.00" waitingCount="1" stopTime="0.00" timeLoss="39.85" rerouteNo="0" devices="vehroute_flow_6_phase1_S_left.2 tripinfo_flow_6_phase1_S_left.2" vType="moto" speedFactor="1.14" vaporized=""/>
    <tripinfo id="flow_5_phase1_S_straight.5" depart="67.00" departLane="S_in_0" departPos="64.25" departSpeed="6.13" departDelay="0.70" arrival="132.00" arrivalLane="N_out_0" arrivalPos="189.60" arrivalSpeed="11.88" duration="65.00" routeLength="335.75" waitingTime="14.00" waitingCount="1" stopTime="0.00" timeLoss="39.19" rerouteNo="0" devices="vehroute_flow_5_phase1_S_straight.5 tripinfo_flow_5_phase1_S_straight.5" vType="moto" speedFactor="0.94" vaporized=""/>
    <tripinfo id="flow_5_phase1_S_straight.6" depart="80.00" departLane="S_in_1" departPos="88.32" departSpeed="12.99" departDelay="0.43" arrival="134.00" arrivalLane="N_out_0" arrivalPos="189.60" arrivalSpeed="14.15" duration="54.00" routeLength="311.68" waitingTime="14.00" waitingCount="1" stopTime="0.00" timeLoss="32.80" rerouteNo="0" devices="vehroute_flow_5_phase1_S_straight.6 tripinfo_flow_5_phase1_S_straight.6" vType="moto" speedFactor="1.10" vaporized=""/>
    <tripinfo id="flow_3_phase1_N_right.3" depart="103.00" departLane="N_in_0" departPos="50.11" departSpeed="4.64" departDelay="0.21" arrival="134.00" arrivalLane="W_out_0" arrivalPos="189.60" arrivalSpeed="12.62" duration="31.00" routeLength="338.12" waitingTime="0.00" waitingCount="0" stopTime="0.00" timeLoss="4.65" rerouteNo="0" devices="vehroute_flow_3_phase1_N_right.3 tripinfo_flow_3_phase1_N_right.3" vType="moto" speedFactor="0.96" vaporized=""/>
    <tripinfo id="flow_2_phase1_N_left.2" depart="66.00" departLane="W_in_1" departPos="129.09" departSpeed="5.26" departDelay="0.48" arrival="135.00" arrivalLane="W_out_1" arrivalPos="189.60" arrivalSpeed="13.60" duration="69.00" routeLength="254.78" waitingTime="38.00" waitingCount="2" stopTime="0.00" timeLoss="49.27" rerouteNo="0" devices="vehroute_flow_2_phase1_N_left.2 tripinfo_flow_2_phase1_N_left.2" vType="moto" speedFactor="1.00" vaporized=""/>
    <tripinfo id="flow_13_phase1_W_straight.5" depart="68.00" departLane="S_in_1" departPos="29.88" departSpeed="4.60" departDelay="0.92" arrival="136.00" arrivalLane="S_out_1" arrivalPos="189.60" arrivalSpeed="11.83" duration="68.00" routeLength="353.99" waitingTime="14.00" waitingCount="1" stopTime="0.00" timeLoss="38.12" rerouteNo="0" devices="vehroute_flow_13_phase1_W_straight.5 tripinfo_flow_13_phase1_W_straight.5" vType="moto" speedFactor="0.90" vaporized=""/>
    <tripinfo id="flow_1_phase1_N_straight.6" depart="82.00" departLane="S_in_1" departPos="107.80" departSpeed="5.54" departDelay="0.71" arrival="137.00" arrivalLane="S_out_1" arrivalPos="189.60" arrivalSpeed="13.42" duration="55.00" routeLength="276.07" waitingTime="13.00" waitingCount="1" stopTime="0.00" timeLoss="34.06" rerouteNo="0" devices="vehroute_flow_1_phase1_N_straight.6 tripinfo_flow_1_phase1_N_straight.6" vType="car" speedFactor="0.98" vaporized=""/>