<?xml version="1.0" encoding="UTF-8"?>

<!-- generated on 2025-12-09 20:44:54 by Eclipse SUMO sumo Version 1.18.0
<configuration xmlns:xsi="http://www.w3.org/2001/XMLSchema-instance" xsi:noNamespaceSchemaLocation="http://sumo.dlr.de/xsd/sumoConfiguration.xsd">

    <input>
        <net-file value="/workspace/nets/60p2k/net.net.xml"/>
        <route-files value="/workspace/nets/60p2k/route_temp_72_137290992368128_57441218.rou.xml"/>
    </input>

    <output>
        <summary-output value="results/summary_ep_10.xml"/>
        <tripinfo-output value="results/tripinfo_ep_10.xml"/>
        <vehroute-output value="results/vehroute_ep_10.xml"/>
    </output>

    <time>
        <begin value="0"/>
    </time>

    <report>
        <verbose value="true"/>
        <no-step-log value="true"/>
    </report>

    <traci_server>
        <remote-port value="52257"/>
    </traci_server>

    <gui_only>
        <gui-settings-file value="/workspace/nets/60p2k/gui-settings.xml"/>
        <quit-on-end value="true"/>
    </gui_only>

</configuration>
-->

<tripinfos xmlns:xsi="http://www.w3.org/2001/XMLSchema-instance" xsi:noNamespaceSchemaLocation="http://sumo.dlr.de/xsd/tripinfo_file.xsd">
    <tripinfo id="flow_3_phase1_N_right.0" depart="0.00" departLane="N_in_0" departPos="103.38" departSpeed="3.75" departDelay="0.00" arrival="24.00" arrivalLane="W_out_0" arrivalPos="189.60" arrivalSpeed="14.93" duration="24.00" routeLength="284.85" waitingTime="0.00" waitingCount="0" stopTime="0.00" timeLoss="4.55" rerouteNo="0" devices="vehroute_flow_3_phase1_N_right.0 tripinfo_flow_3_phase1_N_right.0" vType="car" speedFactor="1.09" vaporized=""/>
    <tripinfo id="flow_8_phase1_S_uturn.0" depart="0.00" departLane="S_in_0" departPos="120.11" departSpeed="4.48" departDelay="0.00" arrival="24.00" arrivalLane="S_out_1" arrivalPos="189.60" arrivalSpeed="13.35" duration="24.00" routeLength="263.76" waitingTime="0.00" waitingCount="0" stopTime="0.00" timeLoss="4.90" rerouteNo="0" devices="vehroute_flow_8_phase1_S_uturn.0 tripinfo_flow_8_phase1_S_uturn.0" vType="moto" speedFactor="1.05" vaporized=""/>
    <tripinfo id="flow_5_phase1_S_straight.0" depart="0.00" departLane="S_in_1" departPos="107.37" departSpeed="7.21" departDelay="0.00" arrival="25.00" arrivalLane="N_out_1" arrivalPos="189.60" arrivalSpeed="15.54" duration="25.00" routeLength="292.63" waitingTime="0.00" waitingCount="0" stopTime="0.00" timeLoss="6.40" rerouteNo="0" devices="vehroute_flow_5_phase1_S_straight.0 tripinfo_flow_5_phase1_S_straight.0" vType="moto" speedFactor="1.15" vaporized=""/>
    <tripinfo id="flow_6_phase1_S_left.0" depart="0.00" departLane="S_in_1" departPos="166.01" departSpeed="0.74" departDelay="0.00" arrival="25.00" arrivalLane="W_out_1" arrivalPos="189.60" arrivalSpeed="11.84" duration="25.00" routeLength="232.54" waitingTime="0.00" waitingCount="0" stopTime="0.00" timeLoss="4.35" rerouteNo="0" devices="vehroute_flow_6_phase1_S_left.0 tripinfo_flow_6_phase1_S_left.0" vType="moto" speedFactor="0.88" vaporized=""/>
    <tripinfo id="flow_4_phase1_N_uturn.0" depart="0.00" departLane="N_in_1" departPos="127.60" departSpeed="0.08" departDelay="0.00" arrival="32.00" arrivalLane="N_out_1" arrivalPos="189.60" arrivalSpeed="11.78" duration="32.00" routeLength="256.27" waitingTime="2.00" waitingCount="1" stopTime="0.00" timeLoss="10.48" rerouteNo="0" devices="vehroute_flow_4_phase1_N_uturn.0 tripinfo_flow_4_phase1_N_uturn.0" vType="car" speedFactor="0.92" vaporized=""/>
    <tripinfo id="flow_15_phase1_W_right.0" depart="0.00" departLane="W_in_0" departPos="108.38" departSpeed="2.63" departDelay="0.00" arrival="39.00" arrivalLane="S_out_0" arrivalPos="189.60" arrivalSpeed="10.73" duration="39.00" routeLength="279.85" waitingTime="6.00" waitingCount="1" stopTime="0.00" timeLoss="13.86" rerouteNo="0" devices="vehroute_flow_15_phase1_W_right.0 tripinfo_flow_15_phase1_W_right.0" vType="moto" speedFactor="0.85" vaporized=""/>
    <tripinfo id="flow_16_phase1_W_uturn.0" depart="0.00" departLane="W_in_0" departPos="126.68" departSpeed="11.71" departDelay="0.00" arrival="39.00" arrivalLane="W_out_1" arrivalPos="189.60" arrivalSpeed="14.32" duration="39.00" routeLength="257.19" waitingTime="12.00" waitingCount="1" stopTime="0.00" timeLoss="19.06" rerouteNo="0" devices="vehroute_flow_16_phase1_W_uturn.0 tripinfo_flow_16_phase1_W_uturn.0" vType="moto" speedFactor="1.04" vaporized=""/>
    <tripinfo id="flow_9_phase1_E_straight.0" depart="0.00" departLane="E_in_0" departPos="168.29" departSpeed="9.83" departDelay="0.00" arrival="41.00" arrivalLane="W_out_0" arrivalPos="189.60" arrivalSpeed="12.31" duration="41.00" routeLength="231.71" waitingTime="11.00" waitingCount="1" stopTime="0.00" timeLoss="21.81" rerouteNo="0" devices="vehroute_flow_9_phase1_E_straight.0 tripinfo_flow_9_phase1_E_straight.0" vType="truck" speedFactor="0.90" vaporized=""/>
    <tripinfo id="flow_14_phase1_W_left.0" depart="0.00" departLane="W_in_1" departPos="182.88" departSpeed="5.61" departDelay="0.00" arrival="41.00" arrivalLane="N_out_1" arrivalPos="189.60" arrivalSpeed="13.91" duration="41.00" routeLength="215.67" waitingTime="17.00" waitingCount="2" stopTime="0.00" timeLoss="24.86" rerouteNo="0" devices="vehroute_flow_14_phase1_W_left.0 tripinfo_flow_14_phase1_W_left.0" vType="moto" speedFactor="1.01" vaporized=""/>
    <tripinfo id="flow_11_phase1_E_right.0" depart="0.00" departLane="E_in_1" departPos="144.95" departSpeed="4.02" departDelay="0.00" arrival="42.00" arrivalLane="N_out_0" arrivalPos="189.60" arrivalSpeed="12.61" duration="42.00" routeLength="243.28" waitingTime="10.00" waitingCount="1" stopTime="0.00" timeLoss="22.05" rerouteNo="0" devices="vehroute_flow_11_phase1_E_right.0 tripinfo_flow_11_phase1_E_right.0" vType="bus" speedFactor="0.96" vaporized=""/>
    <tripinfo id="flow_13_phase1_W_straight.0" depart="0.00" departLane="W_in_0" departPos="24.53" departSpeed="3.79" departDelay="0.00" arrival="43.00" arrivalLane="E_out_0" arrivalPos="189.60" arrivalSpeed="11.14" duration="43.00" routeLength="375.47" waitingTime="0.00" waitingCount="0" stopTime="0.00" timeLoss="9.40" rerouteNo="0" devices="vehroute_flow_13_phase1_W_straight.0 tripinfo_flow_13_phase1_W_straight.0" vType="container" speedFactor="0.82" vaporized=""/>
    <tripinfo id="flow_10_phase1_E_left.0" depart="0.00" departLane="E_in_0" departPos="44.88" departSpeed="7.69" departDelay="0.00" arrival="48.00" arrivalLane="S_out_1" arrivalPos="189.60" arrivalSpeed="13.38" duration="48.00" routeLength="353.67" waitingTime="5.00" waitingCount="2" stopTime="0.00" timeLoss="22.16" rerouteNo="0" devices="vehroute_flow_10_phase1_E_left.0 tripinfo_flow_10_phase1_E_left.0" vType="truck" speedFactor="1.02" vaporized=""/>
    <tripinfo id="flow_2_phase1_N_left.0" depart="0.00" departLane="N_in_1" departPos="8.27" departSpeed="8.33" departDelay="0.00" arrival="49.00" arrivalLane="E_out_1" arrivalPos="189.60" arrivalSpeed="13.89" duration="49.00" routeLength="390.28" waitingTime="13.00" waitingCount="1" stopTime="0.00" timeLoss="20.26" rerouteNo="0" devices="vehroute_flow_2_phase1_N_left.0 tripinfo_flow_2_phase1_N_left.0" vType="moto" speedFactor="1.02" vaporized=""/>
    <tripinfo id="flow_5_phase1_S_straight.1" depart="26.00" departLane="S_in_1" departPos="31.93" departSpeed="9.28" departDelay="0.86" arrival="51.00" arrivalLane="N_out_1" arrivalPos="189.60" arrivalSpeed="15.70" duration="25.00" routeLength="368.07" waitingTime="0.00" waitingCount="0" stopTime="0.00" timeLoss="1.34" rerouteNo="0" devices="vehroute_flow_5_phase1_S_straight.1 tripinfo_flow_5_phase1_S_straight.1" vType="moto" speedFactor="1.19" vaporized=""/>
    <tripinfo id="flow_1_phase1_N_straight.0" depart="0.00" departLane="N_in_0" departPos="8.62" departSpeed="8.51" departDelay="0.00" arrival="56.00" arrivalLane="S_out_0" arrivalPos="189.60" arrivalSpeed="11.31" duration="56.00" routeLength="391.38" waitingTime="11.00" waitingCount="1" stopTime="0.00" timeLoss="22.46" rerouteNo="0" devices="vehroute_flow_1_phase1_N_straight.0 tripinfo_flow_1_phase1_N_straight.0" vType="bus" speedFactor="0.86" vaporized=""/>
    <tripinfo id="flow_7_phase1_S_right.0" depart="0.00" departLane="S_in_0" departPos="8.76" departSpeed="8.07" departDelay="0.00" arrival="56.00" arrivalLane="E_out_0" arrivalPos="189.60" arrivalSpeed="11.18" duration="56.00" routeLength="379.47" waitingTime="12.00" waitingCount="1" stopTime="0.00" timeLoss="22.69" rerouteNo="0" devices="vehroute_flow_7_phase1_S_right.0 tripinfo_flow_7_phase1_S_right.0" vType="container" speedFactor="0.85" vaporized=""/>
    <tripinfo id="flow_1_phase1_N_straight.1" depart="26.00" departLane="N_in_1" departPos="58.36" departSpeed="11.64" departDelay="0.32" arrival="56.00" arrivalLane="S_out_1" arrivalPos="189.60" arrivalSpeed="11.91" duration="30.00" routeLength="341.64" waitingTime="0.00" waitingCount="0" stopTime="0.00" timeLoss="1.49" rerouteNo="0" devices="vehroute_flow_1_phase1_N_straight.1 tripinfo_flow_1_phase1_N_straight.1" vType="moto" speedFactor="0.87" vaporized=""/>
    <tripinfo id="flow_9_phase1_E_straight.1" depart="25.00" departLane="E_in_0" departPos="131.13" departSpeed="9.54" departDelay="0.53" arrival="70.00" arrivalLane="W_out_0" arrivalPos="189.60" arrivalSpeed="15.18" duration="45.00" routeLength="268.87" waitingTime="21.00" waitingCount="1" stopTime="0.00" timeLoss="28.15" rerouteNo="0" devices="vehroute_flow_9_phase1_E_straight.1 tripinfo_flow_9_phase1_E_straight.1" vType="moto" speedFactor="1.16" vaporized=""/>
    <tripinfo id="flow_13_phase1_W_straight.1" depart="26.00" departLane="W_in_1" departPos="121.65" departSpeed="2.86" departDelay="0.57" arrival="71.00" arrivalLane="E_out_0" arrivalPos="189.60" arrivalSpeed="15.54" duration="45.00" routeLength="278.35" waitingTime="18.00" waitingCount="1" stopTime="0.00" timeLoss="26.57" rerouteNo="0" devices="vehroute_flow_13_phase1_W_straight.1 tripinfo_flow_13_phase1_W_straight.1" vType="car" speedFactor="1.12" vaporized=""/>
    <tripinfo id="flow_12_phase1_E_uturn.0" depart="0.00" departLane="E_in_0" departPos="5.65" departSpeed="13.76" departDelay="0.00" arrival="72.00" arrivalLane="E_out_1" arrivalPos="189.60" arrivalSpeed="13.36" duration="72.00" routeLength="378.22" waitingTime="28.00" waitingCount="3" stopTime="0.00" timeLoss="44.09" rerouteNo="0" devices="vehroute_flow_12_phase1_E_uturn.0 tripinfo_flow_12_phase1_E_uturn.0" vType="moto" speedFactor="1.03" vaporized=""/>
    <tripinfo id="flow_9_phase1_E_straight.2" depart="49.00" departLane="E_in_1" departPos="52.87" departSpeed="0.38" departDelay="0.07" arrival="78.00" arrivalLane="W_out_0" arrivalPos="189.60" arrivalSpeed="12.89" duration="29.00" routeLength="347.13" waitingTime="0.00" waitingCount="0" stopTime="0.00" timeLoss="3.81" rerouteNo="0" devices="vehroute_flow_9_phase1_E_straight.2 tripinfo_flow_9_phase1_E_straight.2" vType="moto" speedFactor="0.99" vaporized=""/>
    <tripinfo id="flow_13_phase1_W_straight.2" depart="51.00" departLane="W_in_1" departPos="59.51" departSpeed="13.32" departDelay="0.14" arrival="78.00" arrivalLane="E_out_1" arrivalPos="189.60" arrivalSpeed="13.27" duration="27.00" routeLength="340.49" waitingTime="0.00" waitingCount="0" stopTime="0.00" timeLoss="0.70" rerouteNo="0" devices="vehroute_flow_13_phase1_W_straight.2 tripinfo_flow_13_phase1_W_straight.2" vType="bus" speedFactor="0.97" vaporized=""/>
    <tripinfo id="flow_15_phase1_W_right.1" depart="63.00" departLane="W_in_0" departPos="73.90" departSpeed="9.22" departDelay="0.61" arrival="88.00" arrivalLane="S_out_0" arrivalPos="189.60" arrivalSpeed="13.98" duration="25.00" routeLength="314.33" waitingTime="0.00" waitingCount="0" stopTime="0.00" timeLoss="3.21" rerouteNo="0" devices="vehroute_flow_15_phase1_W_right.1 tripinfo_flow_15_phase1_W_right.1" vType="moto" speedFactor="1.08" vaporized=""/>
    <tripinfo id="flow_10_phase1_E_left.1" depart="64.00" departLane="E_in_1" departPos="185.21" departSpeed="3.70" departDelay="0.35" arrival="88.00" arrivalLane="S_out_1" arrivalPos="189.60" arrivalSpeed="10.60" duration="24.00" routeLength="213.34" waitingTime="0.00" waitingCount="0" stopTime="0.00" timeLoss="2.24" rerouteNo="0" devices="vehroute_flow_10_phase1_E_left.1 tripinfo_flow_10_phase1_E_left.1" vType="truck" speedFactor="0.77" vaporized=""/>
    <tripinfo id="flow_14_phase1_W_left.1" depart="66.00" departLane="W_in_1" departPos="175.36" departSpeed="7.25" departDelay="0.51" arrival="91.00" arrivalLane="N_out_1" arrivalPos="189.60" arrivalSpeed="12.29" duration="25.00" routeLength="223.19" waitingTime="0.00" waitingCount="0" stopTime="0.00" timeLoss="6.62" rerouteNo="0" devices="vehroute_flow_14_phase1_W_left.1 tripinfo_flow_14_phase1_W_left.1" vType="container" speedFactor="0.91" vaporized=""/>
    <tripinfo id="flow_7_phase1_S_right.1" depart="62.00" departLane="S_in_0" departPos="8.88" departSpeed="2.82" departDelay="0.26" arrival="95.00" arrivalLane="E_out_0" arrivalPos="189.60" arrivalSpeed="15.09" duration="33.00" routeLength="379.35" waitingTime="0.00" waitingCount="0" stopTime="0.00" timeLoss="7.21" rerouteNo="0" devices="vehroute_flow_7_phase1_S_right.1 tripinfo_flow_7_phase1_S_right.1" vType="moto" speedFactor="1.12" vaporized=""/>
    <tripinfo id="flow_5_phase1_S_straight.2" depart="51.00" departLane="S_in_1" departPos="12.70" departSpeed="12.41" departDelay="0.73" arrival="96.00" arrivalLane="N_out_0" arrivalPos="189.60" arrivalSpeed="13.06" duration="45.00" routeLength="387.30" waitingTime="9.00" waitingCount="1" stopTime="0.00" timeLoss="15.17" rerouteNo="0" devices="vehroute_flow_5_phase1_S_straight.2 tripinfo_flow_5_phase1_S_straight.2" vType="moto" speedFactor="0.96" vaporized=""/>
    <tripinfo id="flow_1_phase1_N_straight.2" depart="52.00" departLane="N_in_1" departPos="107.53" departSpeed="1.11" departDelay="0.64" arrival="96.00" arrivalLane="S_out_0" arrivalPos="189.60" arrivalSpeed="12.17" duration="44.00" routeLength="292.47" waitingTime="13.00" waitingCount="1" stopTime="0.00" timeLoss="21.03" rerouteNo="0" devices="vehroute_flow_1_phase1_N_straight.2 tripinfo_flow_1_phase1_N_straight.2" vType="moto" speedFactor="0.93" vaporized=""/>
    <tripinfo id="flow_6_phase1_S_left.1" depart="64.00" departLane="S_in_1" departPos="110.92" departSpeed="11.99" departDelay="0.44" arrival="98.00" arrivalLane="W_out_1" arrivalPos="189.60" arrivalSpeed="13.48" duration="34.00" routeLength="287.63" waitingTime="5.00" waitingCount="2" stopTime="0.00" timeLoss="13.21" rerouteNo="0" devices="vehroute_flow_6_phase1_S_left.1 tripinfo_flow_6_phase1_S_left.1" vType="moto" speedFactor="1.05" vaporized=""/>
    <tripinfo id="flow_5_phase1_S_straight.3" depart="76.00" departLane="S_in_1" departPos="108.76" departSpeed="13.07" departDelay="0.59" arrival="98.00" arrivalLane="N_out_1" arrivalPos="189.60" arrivalSpeed="13.71" duration="22.00" routeLength="291.24" waitingTime="0.00" waitingCount="0" stopTime="0.00" timeLoss="1.98" rerouteNo="0" devices="vehroute_flow_5_phase1_S_straight.3 tripinfo_flow_5_phase1_S_straight.3" vType="moto" speedFactor="1.08" vaporized=""/>
    <tripinfo id="flow_3_phase1_N_right.1" depart="65.00" departLane="N_in_0" departPos="19.85" departSpeed="3.71" departDelay="0.05" arrival="100.00" arrivalLane="W_out_0" arrivalPos="189.60" arrivalSpeed="11.06" duration="35.00" routeLength="368.38" waitingTime="0.00" waitingCount="0" stopTime="0.00" timeLoss="4.38" rerouteNo="0" devices="vehroute_flow_3_phase1_N_right.1 tripinfo_flow_3_phase1_N_right.1" vType="moto" speedFactor="0.88" vaporized=""/>
    <tripinfo id="flow_2_phase1_N_left.1" depart="63.00" departLane="N_in_1" departPos="128.68" departSpeed="3.06" departDelay="0.91" arrival="102.00" arrivalLane="E_out_1" arrivalPos="189.60" arrivalSpeed="14.29" duration="39.00" routeLength="269.87" waitingTime="9.00" waitingCount="2" stopTime="0.00" timeLoss="19.33" rerouteNo="0" devices="vehroute_flow_2_phase1_N_left.1 tripinfo_flow_2_phase1_N_left.1" vType="moto" speedFactor="1.04" vaporized=""/>
    <tripinfo id="flow_1_phase1_N_straight.3" depart="78.00" departLane="N_in_0" departPos="19.25" departSpeed="10.19" departDelay="0.96" arrival="106.00" arrivalLane="S_out_0" arrivalPos="189.60" arrivalSpeed="13.84" duration="28.00" routeLength="380.75" waitingTime="0.00" waitingCount="0" stopTime="0.00" timeLoss="1.26" rerouteNo="0" devices="vehroute_flow_1_phase1_N_straight.3 tripinfo_flow_1_phase1_N_straight.3" vType="car" speedFactor="1.05" vaporized=""/>
    <tripinfo id="flow_13_phase1_W_straight.3" depart="77.00" departLane="W_in_1" departPos="77.94" departSpeed="4.74" departDelay="0.71" arrival="117.00" arrivalLane="E_out_0" arrivalPos="189.60" arrivalSpeed="15.03" duration="40.00" routeLength="322.06" waitingTime="9.00" waitingCount="1" stopTime="0.00" timeLoss="18.97" rerouteNo="0" devices="vehroute_flow_13_phase1_W_straight.3 tripinfo_flow_13_phase1_W_straight.3" vType="moto" speedFactor="1.20" vaporized=""/>
    <tripinfo id="flow_9_phase1_E_straight.3" depart="74.00" departLane="E_in_0" departPos="134.76" departSpeed="5.03" departDelay="0.60" arrival="125.00" arrivalLane="W_out_0" arrivalPos="189.60" arrivalSpeed="11.50" duration="51.00" routeLength="265.24" waitingTime="15.00" waitingCount="1" stopTime="0.00" timeLoss="27.66" rerouteNo="0" devices="vehroute_flow_9_phase1_E_straight.3 tripinfo_flow_9_phase1_E_straight.3" vType="bus" speedFactor="0.85" vaporized=""/>
    <tripinfo id="flow_11_phase1_E_right.1" depart="62.00" departLane="E_in_1" departPos="66.71" departSpeed="7.87" departDelay="0.27" arrival="126.00" arrivalLane="N_out_0" arrivalPos="189.60" arrivalSpeed="10.55" duration="64.00" routeLength="321.52" waitingTime="23.00" waitingCount="1" stopTime="0.00" timeLoss="33.00" rerouteNo="0" devices="vehroute_flow_11_phase1_E_right.1 tripinfo_flow_11_phase1_E_right.1" vType="container" speedFactor="0.78" vaporized=""/>
    <tripinfo id="flow_9_phase1_E_straight.4" depart="98.00" departLane="E_in_0" departPos="148.08" departSpeed="8.76" departDelay="0.14" arrival="127.00" arrivalLane="W_out_1" arrivalPos="189.60" arrivalSpeed="13.08" duration="29.00" routeLength="251.92" waitingTime="0.00" waitingCount="0" stopTime="0.00" timeLoss="9.02" rerouteNo="0" devices="vehroute_flow_9_phase1_E_straight.4 tripinfo_flow_9_phase1_E_straight.4" vType="bus" speedFactor="0.95" vaporized=""/>
    <tripinfo id="flow_13_phase1_W_straight.4" depart="102.00" departLane="W_in_0" departPos="167.23" departSpeed="1.71" departDelay="0.28" arrival="127.00" arrivalLane="E_out_0" arrivalPos="189.60" arrivalSpeed="11.59" duration="25.00" routeLength="232.77" waitingTime="0.00" waitingCount="0" stopTime="0.00" timeLoss="5.04" rerouteNo="0" devices="vehroute_flow_13_phase1_W_straight.4 tripinfo_flow_13_phase1_W_straight.4" vType="bus" speedFactor="0.87" vaporized=""/>
    <tripinfo id="flow_1_phase1_N_straight.4" depart="103.00" departLane="N_in_0" departPos="8.08" departSpeed="6.13" departDelay="0.28" arrival="146.00" arrivalLane="S_out_0" arrivalPos="189.60" arrivalSpeed="12.48" duration="43.00" routeLength="391.92" waitingTime="0.00" waitingCount="0" stopTime="0.00" timeLoss="11.72" rerouteNo="0" devices="vehroute_flow_1_phase1_N_straight.4 tripinfo_flow_1_phase1_N_straight.4" vType="truck" speedFactor="0.92" vaporized=""/>
    <tripinfo id="flow_7_phase1_S_right.2" depart="124.00" departLane="S_in_1" departPos="171.48" departSpeed="2.13" departDelay="0.52" arrival="148.00" arrivalLane="E_out_0" arrivalPos="189.60" arrivalSpeed="13.20" duration="24.00" routeLength="216.75" waitingTime="0.00" waitingCount="0" stopTime="0.00" timeLoss="7.58" rerouteNo="0" devices="vehroute_flow_7_phase1_S_right.2 tripinfo_flow_7_phase1_S_right.2" vType="moto" speedFactor="1.00" vaporized=""/>
    <tripinfo id="flow_8_phase1_S_uturn.1" depart="126.00" departLane="S_in_1" departPos="168.21" departSpeed="11.63" departDelay="0.74" arrival="148.00" arrivalLane="S_out_1" arrivalPos="189.60" arrivalSpeed="12.37" duration="22.00" routeLength="215.66" waitingTime="0.00" waitingCount="0" stopTime="0.00" timeLoss="4.80" rerouteNo="0" devices="vehroute_flow_8_phase1_S_uturn.1 tripinfo_flow_8_phase1_S_uturn.1" vType="moto" speedFactor="0.94" vaporized=""/>
    <tripinfo id="flow_5_phase1_S_straight.4" depart="101.00" departLane="S_in_1" departPos="23.57" departSpeed="9.61" departDelay="0.46" arrival="149.00" arrivalLane="N_out_0" arrivalPos="189.60" arrivalSpeed="13.30" duration="48.00" routeLength="376.43" waitingTime="5.00" waitingCount="1" stopTime="0.00" timeLoss="19.74" rerouteNo="0" devices="vehroute_flow_5_phase1_S_straight.4 tripinfo_flow_5_phase1_S_straight.4" vType="container" speedFactor="0.97" vaporized=""/>
    <tripinfo id="flow_3_phase1_N_right.2" depart="130.00" departLane="N_in_1" departPos="159.96" departSpeed="7.48" departDelay="0.11" arrival="149.00" arrivalLane="W_out_0" arrivalPos="189.60" arrivalSpeed="14.16" duration="19.00" routeLength="228.27" waitingTime="0.00" waitingCount="0" stopTime="0.00" timeLoss="3.65" rerouteNo="0" devices="vehroute_flow_3_phase1_N_right.2 tripinfo_flow_3_phase1_N_right.2" vType="moto" speedFactor="1.10" vaporized=""/>
    <tripinfo id="flow_2_phase1_N_left.2" depart="125.00" departLane="N_in_0" departPos="71.94" departSpeed="4.24" departDelay="0.82" arrival="152.00" arrivalLane="E_out_1" arrivalPos="189.60" arrivalSpeed="14.82" duration="27.00" routeLength="326.61" waitingTime="0.00" waitingCount="0" stopTime="0.00" timeLoss="5.04" rerouteNo="0" devices="vehroute_flow_2_phase1_N_left.2 tripinfo_flow_2_phase1_N_left.2" vType="emergency" speedFactor="1.10" vaporized=""/>
    <tripinfo id="flow_4_phase1_N_uturn.1" depart="126.00" departLane="N_in_0" departPos="121.56" departSpeed="11.33" departDelay="0.52" arrival="153.00" arrivalLane="N_out_1" arrivalPos="189.60" arrivalSpeed="11.96" duration="27.00" routeLength="262.31" waitingTime="0.00" waitingCount="0" stopTime="0.00" timeLoss="5.63" rerouteNo="0" devices="vehroute_flow_4_phase1_N_uturn.1 tripinfo_flow_4_phase1_N_uturn.1" vType="moto" speedFactor="0.95" vaporized=""/>
    <tripinfo id="flow_5_phase1_S_straight.5" depart="126.00" departLane="S_in_0" departPos="104.14" departSpeed="11.66" departDelay="0.32" arrival="153.00" arrivalLane="N_out_0" arrivalPos="189.60" arrivalSpeed="11.62" duration="27.00" routeLength="295.86" waitingTime="0.00" waitingCount="0" stopTime="0.00" timeLoss="2.17" rerouteNo="0" devices="vehroute_flow_5_phase1_S_straight.5 tripinfo_flow_5_phase1_S_straight.5" vType="moto" speedFactor="0.89" vaporized=""/>
    <tripinfo id="flow_1_phase1_N_straight.5" depart="129.00" departLane="N_in_1" departPos="74.60" departSpeed="10.27" departDelay="0.60" arrival="157.00" arrivalLane="S_out_0" arrivalPos="189.60" arrivalSpeed="12.24" duration="28.00" routeLength="325.40" waitingTime="0.00" waitingCount="0" stopTime="0.00" timeLoss="1.59" rerouteNo="0" devices="vehroute_flow_1_phase1_N_straight.5 tripinfo_flow_1_phase1_N_straight.5" vType="moto" speedFactor="0.90" vaporized=""/>
    <tripinfo id="flow_6_phase1_S_left.2" depart="128.00" departLane="S_in_1" departPos="124.88" departSpeed="0.01" departDelay="0.88" arrival="159.00" arrivalLane="W_out_1" arrivalPos="189.60" arrivalSpeed="13.73" duration="31.00" routeLength="273.67" waitingTime="3.00" waitingCount="1" stopTime="0.00" timeLoss="11.43" rerouteNo="0" devices="vehroute_flow_6_phase1_S_left.2 tripinfo_flow_6_phase1_S_left.2" vType="moto" speedFactor="1.07" vaporized=""/>
    <tripinfo id="flow_5_phase1_S_straight.6" depart="151.00" departLane="S_in_1" departPos="152.01" departSpeed="5.60" departDelay="0.18" arrival="170.00" arrivalLane="N_out_1" arrivalPos="189.60" arrivalSpeed="14.59" duration="19.00" routeLength="247.99" waitingTime="0.00" waitingCount="0" stopTime="0.00" timeLoss="1.82" rerouteNo="0" devices="vehroute_flow_5_phase1_S_straight.6 tripinfo_flow_5_phase1_S_straight.6" vType="moto" speedFactor="1.10" vaporized=""/>
    <tripinfo id="flow_10_phase1_E_left.2" depart="128.00" departLane="E_in_1" departPos="92.22" departSpeed="0.19" departDelay="0.70" arrival="183.00" arrivalLane="S_out_1" arrivalPos="189.60" arrivalSpeed="15.27" duration="55.00" routeLength="306.33" waitingTime="23.00" waitingCount="1" stopTime="0.00" timeLoss="34.43" rerouteNo="0" devices="vehroute_flow_10_phase1_E_left.2 tripinfo_flow_10_phase1_E_left.2" vType="moto" speedFactor="1.14" vaporized=""/>
    <tripinfo id="flow_9_phase1_E_straight.5" depart="123.00" departLane="E_in_0" departPos="185.47" departSpeed="4.13" departDelay="0.67" arrival="184.00" arrivalLane="W_out_0" arrivalPos="189.60" arrivalSpeed="13.46" duration="61.00" routeLength="214.53" waitingTime="40.00" waitingCount="1" stopTime="0.00" timeLoss="45.37" rerouteNo="0" devices="vehroute_flow_9_phase1_E_straight.5 tripinfo_flow_9_phase1_E_straight.5" vType="moto" speedFactor="1.03" vaporized=""/>
    <tripinfo id="flow_11_phase1_E_right.2" depart="124.00" departLane="E_in_0" departPos="81.69" departSpeed="10.54" departDelay="0.54" arrival="184.00" arrivalLane="N_out_0" arrivalPos="189.60" arrivalSpeed="15.42" duration="60.00" routeLength="306.54" waitingTime="32.00" waitingCount="1" stopTime="0.00" timeLoss="39.51" rerouteNo="0" devices="vehroute_flow_11_phase1_E_right.2 tripinfo_flow_11_phase1_E_right.2" vType="moto" speedFactor="1.14" vaporized=""/>
    <tripinfo id="flow_15_phase1_W_right.2" depart="125.00" departLane="W_in_1" departPos="108.70" departSpeed="7.74" departDelay="0.22" arrival="187.00" arrivalLane="S_out_0" arrivalPos="189.60" arrivalSpeed="12.98" duration="62.00" routeLength="279.53" waitingTime="30.00" waitingCount="1" stopTime="0.00" timeLoss="39.93" rerouteNo="0" devices="vehroute_flow_15_phase1_W_right.2 tripinfo_flow_15_phase1_W_right.2" vType="truck" speedFactor="0.94" vaporized=""/>
    <tripinfo id="flow_13_phase1_W_straight.5" depart="128.00" departLane="W_in_1" departPos="21.68" departSpeed="5.95" departDelay="0.86" arrival="188.00" arrivalLane="E_out_1" arrivalPos="189.60" arrivalSpeed="13.88" duration="60.00" routeLength="378.32" waitingTime="22.00" waitingCount="1" stopTime="0.00" timeLoss="33.21" rerouteNo="0" devices="vehroute_flow_13_phase1_W_straight.5 tripinfo_flow_13_phase1_W_straight.5" vType="moto" speedFactor="1.04" vaporized=""/>
    <tripinfo id="flow_16_phase1_W_uturn.1" depart="126.00" departLane="W_in_1" departPos="89.17" departSpeed="9.90" departDelay="0.21" arrival="189.00" arrivalLane="W_out_1" arrivalPos="189.60" arrivalSpeed="12.08" duration="63.00" routeLength="294.70" waitingTime="28.00" waitingCount="1" stopTime="0.00" timeLoss="37.34" rerouteNo="0" devices="vehroute_flow_16_phase1_W_uturn.1 tripinfo_flow_16_phase1_W_uturn.1" vType="truck" speedFactor="0.89" vaporized=""/>
    <tripinfo id="flow_13_phase1_W_straight.6" depart="153.00" departLane="W_in_0" departPos="24.55" departSpeed="7.86" departDelay="0.43" arrival="189.00" arrivalLane="E_out_0" arrivalPos="189.60" arrivalSpeed="12.38" duration="36.00" routeLength="375.45" waitingTime="0.00" waitingCount="0" stopTime="0.00" timeLoss="8.08" rerouteNo="0" devices="vehroute_flow_13_phase1_W_straight.6 tripinfo_flow_13_phase1_W_straight.6" vType="car" speedFactor="0.98" vaporized=""/>
    <tripinfo id="flow_9_phase1_E_straight.6" depart="147.00" departLane="E_in_1" departPos="137.11" departSpeed="4.59" departDelay="0.20" arrival="190.00" arrivalLane="W_out_0" arrivalPos="189.60" arrivalSpeed="13.62" duration="43.00" routeLength="262.89" waitingTime="12.00" waitingCount="1" stopTime="0.00" timeLoss="23.78" rerouteNo="0" devices="vehroute_flow_9_phase1_E_straight.6 tripinfo_flow_9_phase1_E_straight.6" vType="moto" speedFactor="1.02" vaporized=""/>
    <tripinfo id="flow_12_phase1_E_uturn.1" depart="126.00" departLane="E_in_0" departPos="31.76" departSpeed="12.89" departDelay="0.96" arrival="192.00" arrivalLane="E_out_1" arrivalPos="189.60" arrivalSpeed="13.51" duration="66.00" routeLength="352.11" waitingTime="28.00" waitingCount="2" stopTime="0.00" timeLoss="39.70" rerouteNo="0" devices="vehroute_flow_12_phase1_E_uturn.1 tripinfo_flow_12_phase1_E_uturn.1" vType="moto" speedFactor="1.03" vaporized=""/>
    <tripinfo id="flow_14_phase1_W_left.2" depart="131.00" departLane="W_in_1" departPos="29.07" departSpeed="2.59" departDelay="0.02" arrival="196.00" arrivalLane="N_out_1" arrivalPos="189.60" arrivalSpeed="11.28" duration="65.00" routeLength="369.48" waitingTime="22.00" waitingCount="2" stopTime="0.00" timeLoss="33.81" rerouteNo="0" devices="vehroute_flow_14_phase1_W_left.2 tripinfo_flow_14_phase1_W_left.2" vType="car" speedFactor="0.90" vaporized=""/>
    <tripinfo id="flow_1_phase1_N_straight.6" depart="155.00" departLane="N_in_0" departPos="18.52" departSpeed="1.56" departDelay="0.91" arrival="197.00" arrivalLane="S_out_0" arrivalPos="189.60" arrivalSpeed="12.49" duration="42.00" routeLength="381.48" waitingTime="5.00" waitingCount="1" stopTime="0.00" timeLoss="13.99" rerouteNo="0" devices="vehroute_flow_1_phase1_N_straight.6 tripinfo_flow_1_phase1_N_straight.6" vType="car" speedFactor="0.98" vaporized=""/>
    <tripinfo id="flow_1_phase1_N_straight.7" depart="180.00" departLane="N_in_1" departPos="41.83" departSpeed="13.89" departDelay="0.23" arrival="206.00" arrivalLane="S_out_1" arrivalPos="189.60" arrivalSpeed="14.24" duration="26.00" routeLength="358.17" waitingTime="0.00" waitingCount="0" stopTime="0.00" timeLoss="1.01" rerouteNo="0" devices="vehroute_flow_1_phase1_N_straight.7 tripinfo_flow_1_phase1_N_straight.7" vType="moto" speedFactor="1.06" vaporized=""/>
    <tripinfo id="flow_7_phase1_S_right.3" depart="186.00" departLane="S_in_1" departPos="150.35" departSpeed="8.44" departDelay="0.78" arrival="207.00" arrivalLane="E_out_0" arrivalPos="189.60" arrivalSpeed="13.75" duration="21.00" routeLength="237.88" waitingTime="0.00" waitingCount="0" stopTime="0.00" timeLoss="3.14" rerouteNo="0" devices="vehroute_flow_7_phase1_S_right.3 tripinfo_flow_7_phase1_S_right.3" vType="moto" speedFactor="1.07" vaporized=""/>