<?xml version="1.0" encoding="UTF-8"?>

<!-- generated on 2025-12-09 20:44:31 by Eclipse SUMO sumo Version 1.18.0
<configuration xmlns:xsi="http://www.w3.org/2001/XMLSchema-instance" xsi:noNamespaceSchemaLocation="http://sumo.dlr.de/xsd/sumoConfiguration.xsd">

    <input>
        <net-file value="/workspace/nets/60p2k/net.net.xml"/>
        <route-files value="/workspace/nets/60p2k/route_temp_72_137290992368128_57441218.rou.xml"/>
    </input>

    <output>
        <summary-output value="results/summary_ep_9.xml"/>
        <tripinfo-output value="results/tripinfo_ep_9.xml"/>
        <vehroute-output value="results/vehroute_ep_9.xml"/>
    </output>

    <time>
        <begin value="0"/>
    </time>

    <report>
        <verbose value="true"/>
        <no-step-log value="true"/>
    </report>

    <traci_server>
        <remote-port value="58725"/>
    </traci_server>

    <gui_only>
        <gui-settings-file value="/workspace/nets/60p2k/gui-settings.xml"/>
        <quit-on-end value="true"/>
    </gui_only>

</configuration>
-->

<tripinfos xmlns:xsi="http://www.w3.org/2001/XMLSchema-instance" xsi:noNamespaceSchemaLocation="http://sumo.dlr.de/xsd/tripinfo_file.xsd">
    <tripinfo id="flow_3_phase1_N_right.0" depart="0.00" departLane="N_in_0" departPos="103.38" departSpeed="3.75" departDelay="0.00" arrival="24.00" arrivalLane="W_out_0" arrivalPos="189.60" arrivalSpeed="14.93" duration="24.00" routeLength="284.85" waitingTime="0.00" waitingCount="0" stopTime="0.00" timeLoss="4.55" rerouteNo="0" devices="vehroute_flow_3_phase1_N_right.0 tripinfo_flow_3_phase1_N_right.0" vType="car" speedFactor="1.09" vaporized=""/>
    <tripinfo id="flow_8_phase1_S_uturn.0" depart="0.00" departLane="S_in_0" departPos="120.11" departSpeed="4.48" departDelay="0.00" arrival="24.00" arrivalLane="S_out_1" arrivalPos="189.60" arrivalSpeed="13.35" duration="24.00" routeLength="263.76" waitingTime="0.00" waitingCount="0" stopTime="0.00" timeLoss="4.90" rerouteNo="0" devices="vehroute_flow_8_phase1_S_uturn.0 tripinfo_flow_8_phase1_S_uturn.0" vType="moto" speedFactor="1.05" vaporized=""/>
    <tripinfo id="flow_5_phase1_S_straight.0" depart="0.00" departLane="S_in_1" departPos="107.37" departSpeed="7.21" departDelay="0.00" arrival="25.00" arrivalLane="N_out_1" arrivalPos="189.60" arrivalSpeed="15.54" duration="25.00" routeLength="292.63" waitingTime="0.00" waitingCount="0" stopTime="0.00" timeLoss="6.40" rerouteNo="0" devices="vehroute_flow_5_phase1_S_straight.0 tripinfo_flow_5_phase1_S_straight.0" vType="moto" speedFactor="1.15" vaporized=""/>
    <tripinfo id="flow_6_phase1_S_left.0" depart="0.00" departLane="S_in_1" departPos="166.01" departSpeed="0.74" departDelay="0.00" arrival="25.00" arrivalLane="W_out_1" arrivalPos="189.60" arrivalSpeed="11.97" duration="25.00" routeLength="232.54" waitingTime="0.00" waitingCount="0" stopTime="0.00" timeLoss="4.34" rerouteNo="0" devices="vehroute_flow_6_phase1_S_left.0 tripinfo_flow_6_phase1_S_left.0" vType="moto" speedFactor="0.88" vaporized=""/>
    <tripinfo id="flow_4_phase1_N_uturn.0" depart="0.00" departLane="N_in_1" departPos="127.60" departSpeed="0.08" departDelay="0.00" arrival="32.00" arrivalLane="N_out_1" arrivalPos="189.60" arrivalSpeed="12.70" duration="32.00" routeLength="256.27" waitingTime="2.00" waitingCount="1" stopTime="0.00" timeLoss="10.46" rerouteNo="0" devices="vehroute_flow_4_phase1_N_uturn.0 tripinfo_flow_4_phase1_N_uturn.0" vType="car" speedFactor="0.92" vaporized=""/>
    <tripinfo id="flow_2_phase1_N_left.0" depart="0.00" departLane="N_in_1" departPos="8.27" departSpeed="8.33" departDelay="0.00" arrival="33.00" arrivalLane="E_out_1" arrivalPos="189.60" arrivalSpeed="13.27" duration="33.00" routeLength="390.28" waitingTime="0.00" waitingCount="0" stopTime="0.00" timeLoss="4.20" rerouteNo="0" devices="vehroute_flow_2_phase1_N_left.0 tripinfo_flow_2_phase1_N_left.0" vType="moto" speedFactor="1.02" vaporized=""/>
    <tripinfo id="flow_1_phase1_N_straight.0" depart="0.00" departLane="N_in_0" departPos="8.62" departSpeed="8.51" departDelay="0.00" arrival="35.00" arrivalLane="S_out_0" arrivalPos="189.60" arrivalSpeed="11.91" duration="35.00" routeLength="391.38" waitingTime="0.00" waitingCount="0" stopTime="0.00" timeLoss="1.41" rerouteNo="0" devices="vehroute_flow_1_phase1_N_straight.0 tripinfo_flow_1_phase1_N_straight.0" vType="bus" speedFactor="0.86" vaporized=""/>
    <tripinfo id="flow_7_phase1_S_right.0" depart="0.00" departLane="S_in_0" departPos="8.76" departSpeed="8.07" departDelay="0.00" arrival="39.00" arrivalLane="E_out_0" arrivalPos="189.60" arrivalSpeed="11.18" duration="39.00" routeLength="379.47" waitingTime="0.00" waitingCount="0" stopTime="0.00" timeLoss="5.93" rerouteNo="0" devices="vehroute_flow_7_phase1_S_right.0 tripinfo_flow_7_phase1_S_right.0" vType="container" speedFactor="0.85" vaporized=""/>
    <tripinfo id="flow_14_phase1_W_left.0" depart="0.00" departLane="W_in_1" departPos="182.88" departSpeed="5.61" departDelay="0.00" arrival="45.00" arrivalLane="S_out_0" arrivalPos="189.60" arrivalSpeed="13.31" duration="45.00" routeLength="205.35" waitingTime="24.00" waitingCount="1" stopTime="0.00" timeLoss="29.85" rerouteNo="0" devices="vehroute_flow_14_phase1_W_left.0 tripinfo_flow_14_phase1_W_left.0" vType="moto" speedFactor="1.01" vaporized=""/>
    <tripinfo id="flow_16_phase1_W_uturn.0" depart="0.00" departLane="W_in_0" departPos="126.68" departSpeed="11.71" departDelay="0.00" arrival="48.00" arrivalLane="W_out_1" arrivalPos="189.60" arrivalSpeed="14.32" duration="48.00" routeLength="257.19" waitingTime="22.00" waitingCount="2" stopTime="0.00" timeLoss="28.57" rerouteNo="0" devices="vehroute_flow_16_phase1_W_uturn.0 tripinfo_flow_16_phase1_W_uturn.0" vType="moto" speedFactor="1.04" vaporized=""/>
    <tripinfo id="flow_15_phase1_W_right.0" depart="0.00" departLane="W_in_0" departPos="108.38" departSpeed="2.63" departDelay="0.00" arrival="50.00" arrivalLane="S_out_0" arrivalPos="189.60" arrivalSpeed="11.44" duration="50.00" routeLength="279.85" waitingTime="18.00" waitingCount="1" stopTime="0.00" timeLoss="25.21" rerouteNo="0" devices="vehroute_flow_15_phase1_W_right.0 tripinfo_flow_15_phase1_W_right.0" vType="moto" speedFactor="0.85" vaporized=""/>
    <tripinfo id="flow_9_phase1_E_straight.0" depart="0.00" departLane="E_in_0" departPos="168.29" departSpeed="9.83" departDelay="0.00" arrival="51.00" arrivalLane="W_out_0" arrivalPos="189.60" arrivalSpeed="12.31" duration="51.00" routeLength="231.71" waitingTime="21.00" waitingCount="1" stopTime="0.00" timeLoss="31.99" rerouteNo="0" devices="vehroute_flow_9_phase1_E_straight.0 tripinfo_flow_9_phase1_E_straight.0" vType="truck" speedFactor="0.90" vaporized=""/>
    <tripinfo id="flow_11_phase1_E_right.0" depart="0.00" departLane="E_in_1" departPos="144.95" departSpeed="4.02" departDelay="0.00" arrival="52.00" arrivalLane="N_out_0" arrivalPos="189.60" arrivalSpeed="12.61" duration="52.00" routeLength="243.28" waitingTime="20.00" waitingCount="1" stopTime="0.00" timeLoss="33.16" rerouteNo="0" devices="vehroute_flow_11_phase1_E_right.0 tripinfo_flow_11_phase1_E_right.0" vType="bus" speedFactor="0.96" vaporized=""/>
    <tripinfo id="flow_13_phase1_W_straight.0" depart="0.00" departLane="W_in_0" departPos="24.53" departSpeed="3.79" departDelay="0.00" arrival="59.00" arrivalLane="E_out_0" arrivalPos="189.60" arrivalSpeed="10.81" duration="59.00" routeLength="375.47" waitingTime="7.00" waitingCount="1" stopTime="0.00" timeLoss="25.70" rerouteNo="0" devices="vehroute_flow_13_phase1_W_straight.0 tripinfo_flow_13_phase1_W_straight.0" vType="container" speedFactor="0.82" vaporized=""/>
    <tripinfo id="flow_1_phase1_N_straight.1" depart="26.00" departLane="N_in_1" departPos="58.36" departSpeed="11.64" departDelay="0.32" arrival="61.00" arrivalLane="S_out_0" arrivalPos="189.60" arrivalSpeed="12.09" duration="35.00" routeLength="341.64" waitingTime="0.00" waitingCount="0" stopTime="0.00" timeLoss="6.34" rerouteNo="0" devices="vehroute_flow_1_phase1_N_straight.1 tripinfo_flow_1_phase1_N_straight.1" vType="moto" speedFactor="0.87" vaporized=""/>
    <tripinfo id="flow_10_phase1_E_left.0" depart="0.00" departLane="E_in_0" departPos="44.88" departSpeed="7.69" departDelay="0.00" arrival="64.00" arrivalLane="S_out_1" arrivalPos="189.60" arrivalSpeed="13.75" duration="64.00" routeLength="353.67" waitingTime="21.00" waitingCount="2" stopTime="0.00" timeLoss="37.87" rerouteNo="0" devices="vehroute_flow_10_phase1_E_left.0 tripinfo_flow_10_phase1_E_left.0" vType="truck" speedFactor="1.02" vaporized=""/>
    <tripinfo id="flow_5_phase1_S_straight.1" depart="26.00" departLane="S_in_1" departPos="31.93" departSpeed="9.28" departDelay="0.86" arrival="64.00" arrivalLane="N_out_0" arrivalPos="189.60" arrivalSpeed="15.64" duration="38.00" routeLength="368.07" waitingTime="4.00" waitingCount="2" stopTime="0.00" timeLoss="14.39" rerouteNo="0" devices="vehroute_flow_5_phase1_S_straight.1 tripinfo_flow_5_phase1_S_straight.1" vType="moto" speedFactor="1.19" vaporized=""/>
    <tripinfo id="flow_9_phase1_E_straight.1" depart="25.00" departLane="E_in_0" departPos="131.13" departSpeed="9.54" departDelay="0.53" arrival="81.00" arrivalLane="W_out_0" arrivalPos="189.60" arrivalSpeed="15.22" duration="56.00" routeLength="268.87" waitingTime="22.00" waitingCount="1" stopTime="0.00" timeLoss="38.41" rerouteNo="0" devices="vehroute_flow_9_phase1_E_straight.1 tripinfo_flow_9_phase1_E_straight.1" vType="moto" speedFactor="1.16" vaporized=""/>
    <tripinfo id="flow_13_phase1_W_straight.1" depart="26.00" departLane="W_in_1" departPos="121.65" departSpeed="2.86" departDelay="0.57" arrival="81.00" arrivalLane="E_out_0" arrivalPos="189.60" arrivalSpeed="15.54" duration="55.00" routeLength="278.35" waitingTime="23.00" waitingCount="1" stopTime="0.00" timeLoss="36.46" rerouteNo="0" devices="vehroute_flow_13_phase1_W_straight.1 tripinfo_flow_13_phase1_W_straight.1" vType="car" speedFactor="1.12" vaporized=""/>
    <tripinfo id="flow_13_phase1_W_straight.2" depart="51.00" departLane="W_in_1" departPos="59.51" departSpeed="13.32" departDelay="0.14" arrival="84.00" arrivalLane="E_out_1" arrivalPos="189.60" arrivalSpeed="13.06" duration="33.00" routeLength="340.49" waitingTime="0.00" waitingCount="0" stopTime="0.00" timeLoss="7.00" rerouteNo="0" devices="vehroute_flow_13_phase1_W_straight.2 tripinfo_flow_13_phase1_W_straight.2" vType="bus" speedFactor="0.97" vaporized=""/>
    <tripinfo id="flow_9_phase1_E_straight.2" depart="49.00" departLane="E_in_1" departPos="52.87" departSpeed="0.38" departDelay="0.07" arrival="86.00" arrivalLane="W_out_0" arrivalPos="189.60" arrivalSpeed="13.63" duration="37.00" routeLength="347.13" waitingTime="0.00" waitingCount="0" stopTime="0.00" timeLoss="11.32" rerouteNo="0" devices="vehroute_flow_9_phase1_E_straight.2 tripinfo_flow_9_phase1_E_straight.2" vType="moto" speedFactor="0.99" vaporized=""/>
    <tripinfo id="flow_12_phase1_E_uturn.0" depart="0.00" departLane="E_in_0" departPos="5.65" departSpeed="13.76" departDelay="0.00" arrival="87.00" arrivalLane="E_out_1" arrivalPos="189.60" arrivalSpeed="13.79" duration="87.00" routeLength="378.22" waitingTime="40.00" waitingCount="4" stopTime="0.00" timeLoss="59.41" rerouteNo="0" devices="vehroute_flow_12_phase1_E_uturn.0 tripinfo_flow_12_phase1_E_uturn.0" vType="moto" speedFactor="1.03" vaporized=""/>
    <tripinfo id="flow_15_phase1_W_right.1" depart="63.00" departLane="W_in_0" departPos="73.90" departSpeed="9.22" departDelay="0.61" arrival="88.00" arrivalLane="S_out_0" arrivalPos="189.60" arrivalSpeed="14.64" duration="25.00" routeLength="314.33" waitingTime="0.00" waitingCount="0" stopTime="0.00" timeLoss="3.53" rerouteNo="0" devices="vehroute_flow_15_phase1_W_right.1 tripinfo_flow_15_phase1_W_right.1" vType="moto" speedFactor="1.08" vaporized=""/>
    <tripinfo id="flow_5_phase1_S_straight.2" depart="51.00" departLane="S_in_1" departPos="12.70" departSpeed="12.41" departDelay="0.73" arrival="95.00" arrivalLane="N_out_0" arrivalPos="189.60" arrivalSpeed="12.81" duration="44.00" routeLength="387.30" waitingTime="8.00" waitingCount="1" stopTime="0.00" timeLoss="14.84" rerouteNo="0" devices="vehroute_flow_5_phase1_S_straight.2 tripinfo_flow_5_phase1_S_straight.2" vType="moto" speedFactor="0.96" vaporized=""/>
    <tripinfo id="flow_7_phase1_S_right.1" depart="62.00" departLane="S_in_0" departPos="8.88" departSpeed="2.82" departDelay="0.26" arrival="95.00" arrivalLane="E_out_0" arrivalPos="189.60" arrivalSpeed="15.09" duration="33.00" routeLength="379.35" waitingTime="0.00" waitingCount="0" stopTime="0.00" timeLoss="7.11" rerouteNo="0" devices="vehroute_flow_7_phase1_S_right.1 tripinfo_flow_7_phase1_S_right.1" vType="moto" speedFactor="1.12" vaporized=""/>
    <tripinfo id="flow_1_phase1_N_straight.2" depart="52.00" departLane="N_in_1" departPos="107.53" departSpeed="1.11" departDelay="0.64" arrival="97.00" arrivalLane="S_out_0" arrivalPos="189.60" arrivalSpeed="11.78" duration="45.00" routeLength="292.47" waitingTime="13.00" waitingCount="1" stopTime="0.00" timeLoss="21.42" rerouteNo="0" devices="vehroute_flow_1_phase1_N_straight.2 tripinfo_flow_1_phase1_N_straight.2" vType="moto" speedFactor="0.93" vaporized=""/>
    <tripinfo id="flow_2_phase1_N_left.1" depart="63.00" departLane="N_in_1" departPos="128.68" departSpeed="3.06" departDelay="0.91" arrival="98.00" arrivalLane="E_out_1" arrivalPos="189.60" arrivalSpeed="14.24" duration="35.00" routeLength="269.87" waitingTime="7.00" waitingCount="2" stopTime="0.00" timeLoss="15.49" rerouteNo="0" devices="vehroute_flow_2_phase1_N_left.1 tripinfo_flow_2_phase1_N_left.1" vType="moto" speedFactor="1.04" vaporized=""/>
    <tripinfo id="flow_3_phase1_N_right.1" depart="65.00" departLane="N_in_0" departPos="166.00" departSpeed="1.28" departDelay="0.05" arrival="99.00" arrivalLane="W_out_0" arrivalPos="189.60" arrivalSpeed="11.21" duration="34.00" routeLength="222.23" waitingTime="6.00" waitingCount="1" stopTime="0.00" timeLoss="14.24" rerouteNo="0" devices="vehroute_flow_3_phase1_N_right.1 tripinfo_flow_3_phase1_N_right.1" vType="moto" speedFactor="0.88" vaporized=""/>
    <tripinfo id="flow_1_phase1_N_straight.3" depart="78.00" departLane="N_in_0" departPos="125.48" departSpeed="6.79" departDelay="0.96" arrival="99.00" arrivalLane="S_out_0" arrivalPos="189.60" arrivalSpeed="13.63" duration="21.00" routeLength="274.52" waitingTime="0.00" waitingCount="0" stopTime="0.00" timeLoss="1.72" rerouteNo="0" devices="vehroute_flow_1_phase1_N_straight.3 tripinfo_flow_1_phase1_N_straight.3" vType="car" speedFactor="1.05" vaporized=""/>
    <tripinfo id="flow_5_phase1_S_straight.3" depart="76.00" departLane="S_in_0" departPos="56.18" departSpeed="8.58" departDelay="0.59" arrival="101.00" arrivalLane="N_out_0" arrivalPos="189.60" arrivalSpeed="14.88" duration="25.00" routeLength="343.82" waitingTime="0.00" waitingCount="0" stopTime="0.00" timeLoss="1.53" rerouteNo="0" devices="vehroute_flow_5_phase1_S_straight.3 tripinfo_flow_5_phase1_S_straight.3" vType="moto" speedFactor="1.08" vaporized=""/>
    <tripinfo id="flow_6_phase1_S_left.1" depart="64.00" departLane="S_in_1" departPos="110.92" departSpeed="11.99" departDelay="0.44" arrival="103.00" arrivalLane="W_out_1" arrivalPos="189.60" arrivalSpeed="13.37" duration="39.00" routeLength="287.63" waitingTime="12.00" waitingCount="2" stopTime="0.00" timeLoss="17.71" rerouteNo="0" devices="vehroute_flow_6_phase1_S_left.1 tripinfo_flow_6_phase1_S_left.1" vType="moto" speedFactor="1.05" vaporized=""/>
    <tripinfo id="flow_13_phase1_W_straight.3" depart="77.00" departLane="W_in_0" departPos="132.62" departSpeed="5.49" departDelay="0.71" arrival="107.00" arrivalLane="E_out_1" arrivalPos="189.60" arrivalSpeed="15.41" duration="30.00" routeLength="267.38" waitingTime="3.00" waitingCount="1" stopTime="0.00" timeLoss="13.25" rerouteNo="0" devices="vehroute_flow_13_phase1_W_straight.3 tripinfo_flow_13_phase1_W_straight.3" vType="moto" speedFactor="1.20" vaporized=""/>
    <tripinfo id="flow_14_phase1_W_left.1" depart="66.00" departLane="W_in_0" departPos="93.41" departSpeed="11.36" departDelay="0.51" arrival="115.00" arrivalLane="S_out_0" arrivalPos="189.60" arrivalSpeed="12.44" duration="49.00" routeLength="294.82" waitingTime="12.00" waitingCount="1" stopTime="0.00" timeLoss="24.25" rerouteNo="0" devices="vehroute_flow_14_phase1_W_left.1 tripinfo_flow_14_phase1_W_left.1" vType="container" speedFactor="0.91" vaporized=""/>
    <tripinfo id="flow_11_phase1_E_right.1" depart="62.00" departLane="E_in_1" departPos="66.71" departSpeed="7.87" departDelay="0.27" arrival="116.00" arrivalLane="N_out_0" arrivalPos="189.60" arrivalSpeed="10.57" duration="54.00" routeLength="321.52" waitingTime="13.00" waitingCount="1" stopTime="0.00" timeLoss="23.24" rerouteNo="0" devices="vehroute_flow_11_phase1_E_right.1 tripinfo_flow_11_phase1_E_right.1" vType="container" speedFactor="0.78" vaporized=""/>
    <tripinfo id="flow_10_phase1_E_left.1" depart="64.00" departLane="E_in_1" departPos="4.52" departSpeed="3.89" departDelay="0.35" arrival="120.00" arrivalLane="S_out_1" arrivalPos="189.60" arrivalSpeed="10.47" duration="56.00" routeLength="394.03" waitingTime="5.00" waitingCount="2" stopTime="0.00" timeLoss="17.40" rerouteNo="0" devices="vehroute_flow_10_phase1_E_left.1 tripinfo_flow_10_phase1_E_left.1" vType="truck" speedFactor="0.77" vaporized=""/>
    <tripinfo id="flow_9_phase1_E_straight.3" depart="74.00" departLane="E_in_0" departPos="86.42" departSpeed="8.41" departDelay="0.60" arrival="121.00" arrivalLane="W_out_0" arrivalPos="189.60" arrivalSpeed="11.49" duration="47.00" routeLength="313.58" waitingTime="3.00" waitingCount="2" stopTime="0.00" timeLoss="20.40" rerouteNo="0" devices="vehroute_flow_9_phase1_E_straight.3 tripinfo_flow_9_phase1_E_straight.3" vType="bus" speedFactor="0.85" vaporized=""/>
    <tripinfo id="flow_9_phase1_E_straight.4" depart="98.00" departLane="E_in_1" departPos="135.04" departSpeed="3.72" departDelay="0.14" arrival="122.00" arrivalLane="W_out_1" arrivalPos="189.60" arrivalSpeed="13.01" duration="24.00" routeLength="264.96" waitingTime="0.00" waitingCount="0" stopTime="0.00" timeLoss="3.80" rerouteNo="0" devices="vehroute_flow_9_phase1_E_straight.4 tripinfo_flow_9_phase1_E_straight.4" vType="bus" speedFactor="0.95" vaporized=""/>
    <tripinfo id="flow_5_phase1_S_straight.4" depart="101.00" departLane="S_in_0" departPos="26.76" departSpeed="9.62" departDelay="0.46" arrival="131.00" arrivalLane="N_out_0" arrivalPos="189.60" arrivalSpeed="13.05" duration="30.00" routeLength="373.24" waitingTime="0.00" waitingCount="0" stopTime="0.00" timeLoss="1.46" rerouteNo="0" devices="vehroute_flow_5_phase1_S_straight.4 tripinfo_flow_5_phase1_S_straight.4" vType="container" speedFactor="0.97" vaporized=""/>
    <tripinfo id="flow_1_phase1_N_straight.4" depart="103.00" departLane="N_in_0" departPos="128.04" departSpeed="4.99" departDelay="0.28" arrival="134.00" arrivalLane="S_out_0" arrivalPos="189.60" arrivalSpeed="12.34" duration="31.00" routeLength="271.96" waitingTime="0.00" waitingCount="0" stopTime="0.00" timeLoss="9.66" rerouteNo="0" devices="vehroute_flow_1_phase1_N_straight.4 tripinfo_flow_1_phase1_N_straight.4" vType="truck" speedFactor="0.92" vaporized=""/>
    <tripinfo id="flow_2_phase1_N_left.2" depart="125.00" departLane="N_in_1" departPos="112.37" departSpeed="10.40" departDelay="0.82" arrival="146.00" arrivalLane="E_out_1" arrivalPos="189.60" arrivalSpeed="15.20" duration="21.00" routeLength="286.18" waitingTime="0.00" waitingCount="0" stopTime="0.00" timeLoss="1.56" rerouteNo="0" devices="vehroute_flow_2_phase1_N_left.2 tripinfo_flow_2_phase1_N_left.2" vType="emergency" speedFactor="1.10" vaporized=""/>
    <tripinfo id="flow_7_phase1_S_right.2" depart="124.00" departLane="S_in_0" departPos="125.76" departSpeed="4.77" departDelay="0.52" arrival="147.00" arrivalLane="E_out_0" arrivalPos="189.60" arrivalSpeed="13.72" duration="23.00" routeLength="262.47" waitingTime="0.00" waitingCount="0" stopTime="0.00" timeLoss="3.46" rerouteNo="0" devices="vehroute_flow_7_phase1_S_right.2 tripinfo_flow_7_phase1_S_right.2" vType="moto" speedFactor="1.00" vaporized=""/>
    <tripinfo id="flow_4_phase1_N_uturn.1" depart="126.00" departLane="N_in_0" departPos="179.13" departSpeed="7.48" departDelay="0.52" arrival="147.00" arrivalLane="N_out_1" arrivalPos="189.60" arrivalSpeed="13.12" duration="21.00" routeLength="204.74" waitingTime="0.00" waitingCount="0" stopTime="0.00" timeLoss="3.63" rerouteNo="0" devices="vehroute_flow_4_phase1_N_uturn.1 tripinfo_flow_4_phase1_N_uturn.1" vType="moto" speedFactor="0.95" vaporized=""/>
    <tripinfo id="flow_5_phase1_S_straight.5" depart="126.00" departLane="S_in_0" departPos="185.99" departSpeed="0.18" departDelay="0.32" arrival="147.00" arrivalLane="N_out_0" arrivalPos="189.60" arrivalSpeed="11.67" duration="21.00" routeLength="214.01" waitingTime="0.00" waitingCount="0" stopTime="0.00" timeLoss="3.16" rerouteNo="0" devices="vehroute_flow_5_phase1_S_straight.5 tripinfo_flow_5_phase1_S_straight.5" vType="moto" speedFactor="0.89" vaporized=""/>
    <tripinfo id="flow_8_phase1_S_uturn.1" depart="126.00" departLane="S_in_0" departPos="171.28" departSpeed="6.29" departDelay="0.74" arrival="148.00" arrivalLane="S_out_1" arrivalPos="189.60" arrivalSpeed="12.43" duration="22.00" routeLength="212.59" waitingTime="0.00" waitingCount="0" stopTime="0.00" timeLoss="4.15" rerouteNo="0" devices="vehroute_flow_8_phase1_S_uturn.1 tripinfo_flow_8_phase1_S_uturn.1" vType="moto" speedFactor="0.94" vaporized=""/>
    <tripinfo id="flow_1_phase1_N_straight.5" depart="129.00" departLane="N_in_0" departPos="92.42" departSpeed="12.50" departDelay="0.60" arrival="155.00" arrivalLane="S_out_0" arrivalPos="189.60" arrivalSpeed="11.73" duration="26.00" routeLength="307.58" waitingTime="0.00" waitingCount="0" stopTime="0.00" timeLoss="1.24" rerouteNo="0" devices="vehroute_flow_1_phase1_N_straight.5 tripinfo_flow_1_phase1_N_straight.5" vType="moto" speedFactor="0.90" vaporized=""/>
    <tripinfo id="flow_3_phase1_N_right.2" depart="130.00" departLane="N_in_0" departPos="87.76" departSpeed="12.03" departDelay="0.11" arrival="155.00" arrivalLane="W_out_0" arrivalPos="189.60" arrivalSpeed="14.42" duration="25.00" routeLength="300.47" waitingTime="0.00" waitingCount="0" stopTime="0.00" timeLoss="3.85" rerouteNo="0" devices="vehroute_flow_3_phase1_N_right.2 tripinfo_flow_3_phase1_N_right.2" vType="moto" speedFactor="1.10" vaporized=""/>
    <tripinfo id="flow_6_phase1_S_left.2" depart="128.00" departLane="S_in_0" departPos="2.21" departSpeed="13.62" departDelay="0.88" arrival="158.00" arrivalLane="W_out_1" arrivalPos="189.60" arrivalSpeed="14.00" duration="30.00" routeLength="396.34" waitingTime="0.00" waitingCount="0" stopTime="0.00" timeLoss="2.15" rerouteNo="0" devices="vehroute_flow_6_phase1_S_left.2 tripinfo_flow_6_phase1_S_left.2" vType="moto" speedFactor="1.07" vaporized=""/>
    <tripinfo id="flow_11_phase1_E_right.2" depart="124.00" departLane="E_in_0" departPos="52.57" departSpeed="9.36" departDelay="0.54" arrival="174.00" arrivalLane="N_out_0" arrivalPos="189.60" arrivalSpeed="15.68" duration="50.00" routeLength="335.66" waitingTime="21.00" waitingCount="1" stopTime="0.00" timeLoss="27.94" rerouteNo="0" devices="vehroute_flow_11_phase1_E_right.2 tripinfo_flow_11_phase1_E_right.2" vType="moto" speedFactor="1.14" vaporized=""/>
    <tripinfo id="flow_13_phase1_W_straight.5" depart="128.00" departLane="W_in_1" departPos="155.35" departSpeed="12.29" departDelay="0.86" arrival="175.00" arrivalLane="E_out_1" arrivalPos="189.60" arrivalSpeed="13.33" duration="47.00" routeLength="244.65" waitingTime="22.00" waitingCount="1" stopTime="0.00" timeLoss="30.02" rerouteNo="0" devices="vehroute_flow_13_phase1_W_straight.5 tripinfo_flow_13_phase1_W_straight.5" vType="moto" speedFactor="1.04" vaporized=""/>
    <tripinfo id="flow_9_phase1_E_straight.6" depart="147.00" departLane="E_in_1" departPos="84.30" departSpeed="10.26" departDelay="0.20" arrival="178.00" arrivalLane="W_out_0" arrivalPos="189.60" arrivalSpeed="12.89" duration="31.00" routeLength="315.70" waitingTime="0.00" waitingCount="0" stopTime="0.00" timeLoss="7.92" rerouteNo="0" devices="vehroute_flow_9_phase1_E_straight.6 tripinfo_flow_9_phase1_E_straight.6" vType="moto" speedFactor="1.02" vaporized=""/>
    <tripinfo id="flow_9_phase1_E_straight.5" depart="123.00" departLane="E_in_1" departPos="29.12" departSpeed="12.08" departDelay="0.67" arrival="180.00" arrivalLane="W_out_0" arrivalPos="189.60" arrivalSpeed="14.06" duration="57.00" routeLength="370.88" waitingTime="21.00" waitingCount="1" stopTime="0.00" timeLoss="30.63" rerouteNo="0" devices="vehroute_flow_9_phase1_E_straight.5 tripinfo_flow_9_phase1_E_straight.5" vType="moto" speedFactor="1.03" vaporized=""/>
    <tripinfo id="flow_12_phase1_E_uturn.1" depart="126.00" departLane="E_in_0" departPos="151.29" departSpeed="4.93" departDelay="0.96" arrival="180.00" arrivalLane="E_out_1" arrivalPos="189.60" arrivalSpeed="13.48" duration="54.00" routeLength="232.58" waitingTime="26.00" waitingCount="2" stopTime="0.00" timeLoss="36.25" rerouteNo="0" devices="vehroute_flow_12_phase1_E_uturn.1 tripinfo_flow_12_phase1_E_uturn.1" vType="moto" speedFactor="1.03" vaporized=""/>
    <tripinfo id="flow_13_phase1_W_straight.4" depart="102.00" departLane="W_in_0" departPos="91.01" departSpeed="4.49" departDelay="0.28" arrival="182.00" arrivalLane="E_out_0" arrivalPos="189.60" arrivalSpeed="11.57" duration="80.00" routeLength="308.99" waitingTime="41.00" waitingCount="1" stopTime="0.00" timeLoss="53.68" rerouteNo="0" devices="vehroute_flow_13_phase1_W_straight.4 tripinfo_flow_13_phase1_W_straight.4" vType="bus" speedFactor="0.87" vaporized=""/>
    <tripinfo id="flow_16_phase1_W_uturn.1" depart="126.00" departLane="W_in_0" departPos="0.16" departSpeed="4.20" departDelay="0.21" arrival="184.00" arrivalLane="W_out_0" arrivalPos="189.60" arrivalSpeed="11.91" duration="58.00" routeLength="383.71" waitingTime="12.00" waitingCount="1" stopTime="0.00" timeLoss="25.29" rerouteNo="0" devices="vehroute_flow_16_phase1_W_uturn.1 tripinfo_flow_16_phase1_W_uturn.1" vType="truck" speedFactor="0.89" vaporized=""/>
    <tripinfo id="flow_13_phase1_W_straight.6" depart="153.00" departLane="W_in_0" departPos="149.69" departSpeed="1.76" departDelay="0.43" arrival="184.00" arrivalLane="E_out_1" arrivalPos="189.60" arrivalSpeed="13.21" duration="31.00" routeLength="250.31" waitingTime="0.00" waitingCount="0" stopTime="0.00" timeLoss="12.18" rerouteNo="0" devices="vehroute_flow_13_phase1_W_straight.6 tripinfo_flow_13_phase1_W_straight.6" vType="car" speedFactor="0.98" vaporized=""/>
    <tripinfo id="flow_15_phase1_W_right.2" depart="125.00" departLane="W_in_1" departPos="162.40" departSpeed="1.34" departDelay="0.22" arrival="187.00" arrivalLane="S_out_0" arrivalPos="189.60" arrivalSpeed="12.72" duration="62.00" routeLength="225.83" waitingTime="28.00" waitingCount="1" stopTime="0.00" timeLoss="43.39" rerouteNo="0" devices="vehroute_flow_15_phase1_W_right.2 tripinfo_flow_15_phase1_W_right.2" vType="truck" speedFactor="0.94" vaporized=""/>
    <tripinfo id="flow_10_phase1_E_left.2" depart="128.00" departLane="E_in_0" departPos="78.09" departSpeed="14.42" departDelay="0.70" arrival="187.00" arrivalLane="S_out_1" arrivalPos="189.60" arrivalSpeed="15.06" duration="59.00" routeLength="320.46" waitingTime="21.00" waitingCount="2" stopTime="0.00" timeLoss="37.49" rerouteNo="0" devices="vehroute_flow_10_phase1_E_left.2 tripinfo_flow_10_phase1_E_left.2" vType="moto" speedFactor="1.14" vaporized=""/>
    <tripinfo id="flow_14_phase1_W_left.2" depart="131.00" departLane="W_in_1" departPos="84.66" departSpeed="4.15" departDelay="0.02" arrival="189.00" arrivalLane="S_out_0" arrivalPos="189.60" arrivalSpeed="12.05" duration="58.00" routeLength="303.57" waitingTime="19.00" waitingCount="1" stopTime="0.00" timeLoss="32.86" rerouteNo="0" devices="vehroute_flow_14_phase1_W_left.2 tripinfo_flow_14_phase1_W_left.2" vType="car" speedFactor="0.90" vaporized=""/>
    <tripinfo id="flow_9_phase1_E_straight.7" depart="172.00" departLane="E_in_1" departPos="174.35" departSpeed="2.74" departDelay="0.74" arrival="191.00" arrivalLane="W_out_1" arrivalPos="189.60" arrivalSpeed="13.39" duration="19.00" routeLength="225.65" waitingTime="0.00" waitingCount="0" stopTime="0.00" timeLoss="2.64" rerouteNo="0" devices="vehroute_flow_9_phase1_E_straight.7 tripinfo_flow_9_phase1_E_straight.7" vType="moto" speedFactor="1.01" vaporized=""/>
    <tripinfo id="flow_5_phase1_S_straight.6" depart="151.00" departLane="S_in_1" departPos="29.88" departSpeed="12.24" departDelay="0.18" arrival="207.00" arrivalLane="N_out_0" arrivalPos="189.60" arrivalSpeed="14.12" duration="56.00" routeLength="370.12" waitingTime="23.00" waitingCount="1" stopTime="0.00" timeLoss="30.88" rerouteNo="0" devices="vehroute_flow_5_phase1_S_straight.6 tripinfo_flow_5_phase1_S_straight.6" vType="moto" speedFactor="1.10" vaporized=""/>
    <tripinfo id="flow_1_phase1_N_straight.7" depart="180.00" departLane="N_in_0" departPos="174.06" departSpeed="3.26" departDelay="0.23" arrival="207.00" arrivalLane="S_out_1" arrivalPos="189.60" arrivalSpeed="13.80" duration="27.00" routeLength="225.94" waitingTime="3.00" waitingCount="1" stopTime="0.00" timeLoss="10.99" rerouteNo="0" devices="vehroute_flow_1_phase1_N_straight.7 tripinfo_flow_1_phase1_N_straight.7" vType="moto" speedFactor="1.06" vaporized=""/>
    <tripinfo id="flow_1_phase1_N_straight.6" depart="155.00" departLane="N_in_0" departPos="42.85" departSpeed="1.33" departDelay="0.91" arrival="208.00" arrivalLane="S_out_0" arrivalPos="189.60" arrivalSpeed="12.92" duration="53.00" routeLength="357.15" waitingTime="16.00" waitingCount="1" stopTime="0.00" timeLoss="26.67" rerouteNo="0" devices="vehroute_flow_1_phase1_N_straight.6 tripinfo_flow_1_phase1_N_straight.6" vType="car" speedFactor="0.98" vaporized=""/>