<?xml version="1.0" encoding="UTF-8"?>

<!-- generated on 2025-12-09 20:43:44 by Eclipse SUMO sumo Version 1.18.0
<configuration xmlns:xsi="http://www.w3.org/2001/XMLSchema-instance" xsi:noNamespaceSchemaLocation="http://sumo.dlr.de/xsd/sumoConfiguration.xsd">

    <input>
        <net-file value="/workspace/nets/60p2k/net.net.xml"/>
        <route-files value="/workspace/nets/60p2k/route_temp_72_137290992368128_57441218.rou.xml"/>
    </input>

    <output>
        <summary-output value="results/summary_ep_7.xml"/>
        <tripinfo-output value="results/tripinfo_ep_7.xml"/>
        <vehroute-output value="results/vehroute_ep_7.xml"/>
    </output>

    <time>
        <begin value="0"/>
    </time>

    <report>
        <verbose value="true"/>
        <no-step-log value="true"/>
    </report>

    <traci_server>
        <remote-port value="53027"/>
    </traci_server>

    <gui_only>
        <gui-settings-file value="/workspace/nets/60p2k/gui-settings.xml"/>
        <quit-on-end value="true"/>
    </gui_only>

</configuration>
-->

<routes xmlns:xsi="http://www.w3.org/2001/XMLSchema-instance" xsi:noNamespaceSchemaLocation="http://sumo.dlr.de/xsd/routes_file.xsd">
    <vehicle id="flow_3_phase1_N_right.0" type="car" depart="0.00" departLane="0" departPos="103.3842" departSpeed="3.7523" speedFactor="1.0907" arrival="24.00">
        <route edges="N_in W_out"/>
    </vehicle>

    <vehicle id="flow_8_phase1_S_uturn.0" type="moto" depart="0.00" departLane="0" departPos="120.1072" departSpeed="4.4837" speedFactor="1.0505" arrival="24.00">
        <route edges="S_in S_out"/>
    </vehicle>

    <vehicle id="flow_5_phase1_S_straight.0" type="moto" depart="0.00" departLane="1" departPos="107.3659" departSpeed="7.2113" speedFactor="1.1475" arrival="25.00">
        <route edges="S_in N_out"/>
    </vehicle>

    <vehicle id="flow_6_phase1_S_left.0" type="moto" depart="0.00" departLane="1" departPos="166.0107" departSpeed="0.7376" speedFactor="0.8806" arrival="25.00">
        <route edges="S_in W_out"/>
    </vehicle>

    <vehicle id="flow_4_phase1_N_uturn.0" type="car" depart="0.00" departLane="1" departPos="127.6015" departSpeed="0.0774" speedFactor="0.9228" arrival="32.00">
        <route edges="N_in N_out"/>
    </vehicle>

    <vehicle id="flow_13_phase1_W_straight.0" type="container" depart="0.00" departLane="0" departPos="24.5296" departSpeed="3.7887" speedFactor="0.8227" arrival="38.00">
        <route edges="W_in E_out"/>
    </vehicle>

    <vehicle id="flow_16_phase1_W_uturn.0" type="moto" depart="0.00" departLane="1" departPos="153.8984" departSpeed="3.4838" speedFactor="1.0383" arrival="38.00">
        <route edges="W_in W_out"/>
    </vehicle>

    <vehicle id="flow_9_phase1_E_straight.0" type="truck" depart="0.00" departLane="0" departPos="168.2937" departSpeed="9.8263" speedFactor="0.8990" arrival="41.00">
        <route edges="E_in W_out"/>
    </vehicle>

    <vehicle id="flow_14_phase1_W_left.0" type="moto" depart="0.00" departLane="1" departPos="182.8773" departSpeed="5.6108" speedFactor="1.0101" arrival="41.00">
        <route edges="W_in N_out"/>
    </vehicle>

    <vehicle id="flow_11_phase1_E_right.0" type="bus" depart="0.00" departLane="1" departPos="144.9496" departSpeed="4.0187" speedFactor="0.9581" arrival="42.00">
        <route edges="E_in N_out"/>
    </vehicle>

    <vehicle id="flow_12_phase1_E_uturn.0" type="moto" depart="0.00" departLane="0" departPos="5.6544" departSpeed="13.7593" speedFactor="1.0348" arrival="43.00">
        <route edges="E_in E_out"/>
    </vehicle>

    <vehicle id="flow_10_phase1_E_left.0" type="truck" depart="0.00" departLane="0" departPos="44.8816" departSpeed="7.6878" speedFactor="1.0161" arrival="45.00">
        <route edges="E_in S_out"/>
    </vehicle>

    <vehicle id="flow_15_phase1_W_right.0" type="moto" depart="0.00" departLane="0" departPos="31.8437" departSpeed="2.6276" speedFactor="0.8472" arrival="51.00">
        <route edges="N_in N_out"/>
    </vehicle>

    <vehicle id="flow_5_phase1_S_straight.1" type="moto" depart="26.00" departLane="0" departPos="93.3916" departSpeed="4.9246" speedFactor="1.1853" arrival="53.00">
        <route edges="S_in N_out"/>
    </vehicle>

    <vehicle id="flow_2_phase1_N_left.0" type="moto" depart="0.00" departLane="1" departPos="8.2688" departSpeed="8.3291" speedFactor="1.0157" arrival="54.00">
        <route edges="N_in E_out"/>
    </vehicle>

    <vehicle id="flow_1_phase1_N_straight.0" type="bus" depart="0.00" departLane="0" departPos="8.6229" departSpeed="8.5053" speedFactor="0.8588" arrival="56.00">
        <route edges="N_in S_out"/>
    </vehicle>

    <vehicle id="flow_7_phase1_S_right.0" type="container" depart="0.00" departLane="0" departPos="8.759" departSpeed="8.0654" speedFactor="0.8488" arrival="57.00">
        <route edges="S_in E_out"/>
    </vehicle>

    <vehicle id="flow_1_phase1_N_straight.1" type="moto" depart="26.00" departLane="1" departPos="177.286" departSpeed="5.0054" speedFactor="0.8727" arrival="58.00">
        <route edges="N_in S_out"/>
    </vehicle>

    <vehicle id="flow_9_phase1_E_straight.1" type="moto" depart="25.00" departLane="0" departPos="135.6701" departSpeed="10.69" speedFactor="1.1582" arrival="70.00">
        <route edges="E_in W_out"/>
    </vehicle>

    <vehicle id="flow_13_phase1_W_straight.1" type="car" depart="26.00" departLane="1" departPos="181.05" departSpeed="2.6259" speedFactor="1.1218" arrival="71.00">
        <route edges="W_in E_out"/>
    </vehicle>

    <vehicle id="flow_9_phase1_E_straight.2" type="moto" depart="49.00" departLane="1" departPos="28.7874" departSpeed="8.8635" speedFactor="0.9938" arrival="78.00">
        <route edges="E_in W_out"/>
    </vehicle>

    <vehicle id="flow_13_phase1_W_straight.2" type="bus" depart="51.00" departLane="0" departPos="33.9342" departSpeed="0.899" speedFactor="0.9657" arrival="86.00">
        <route edges="W_in E_out"/>
    </vehicle>

    <vehicle id="flow_7_phase1_S_right.1" type="moto" depart="62.00" departLane="1" departPos="39.2795" departSpeed="8.8514" speedFactor="1.1228" arrival="95.00">
        <route edges="S_in E_out"/>
    </vehicle>

    <vehicle id="flow_5_phase1_S_straight.2" type="moto" depart="51.00" departLane="1" departPos="103.6674" departSpeed="3.7298" speedFactor="0.9623" arrival="96.00">
        <route edges="S_in N_out"/>
    </vehicle>

    <vehicle id="flow_1_phase1_N_straight.2" type="moto" depart="52.00" departLane="1" departPos="64.277" departSpeed="4.0481" speedFactor="0.9279" arrival="97.00">
        <route edges="N_in S_out"/>
    </vehicle>

    <vehicle id="flow_15_phase1_W_right.1" type="moto" depart="63.00" departLane="0" departPos="80.2425" departSpeed="10.177" speedFactor="1.0788" arrival="99.00">
        <route edges="N_in N_out"/>
    </vehicle>

    <vehicle id="flow_1_phase1_N_straight.3" type="car" depart="78.00" departLane="0" departPos="132.6219" departSpeed="4.9942" speedFactor="1.0479" arrival="99.00">
        <route edges="N_in S_out"/>
    </vehicle>

    <vehicle id="flow_3_phase1_N_right.1" type="moto" depart="65.00" departLane="0" departPos="4.5211" departSpeed="11.9566" speedFactor="0.8806" arrival="100.00">
        <route edges="N_in W_out"/>
    </vehicle>

    <vehicle id="flow_5_phase1_S_straight.3" type="moto" depart="76.00" departLane="1" departPos="165.6783" departSpeed="6.8193" speedFactor="1.0764" arrival="101.00">
        <route edges="S_in N_out"/>
    </vehicle>

    <vehicle id="flow_6_phase1_S_left.1" type="moto" depart="64.00" departLane="1" departPos="97.231" departSpeed="5.6629" speedFactor="1.0453" arrival="103.00">
        <route edges="S_in W_out"/>
    </vehicle>

    <vehicle id="flow_2_phase1_N_left.1" type="moto" depart="63.00" departLane="0" departPos="54.9911" departSpeed="5.0692" speedFactor="1.0365" arrival="104.00">
        <route edges="N_in E_out"/>
    </vehicle>

    <vehicle id="flow_13_phase1_W_straight.3" type="moto" depart="77.00" departLane="0" departPos="56.1823" departSpeed="15.5438" speedFactor="1.2027" arrival="107.00">
        <route edges="W_in E_out"/>
    </vehicle>

    <vehicle id="flow_11_phase1_E_right.1" type="container" depart="62.00" departLane="0" departPos="15.1679" departSpeed="0.5108" speedFactor="0.7845" arrival="116.00">
        <route edges="E_in N_out"/>
    </vehicle>

    <vehicle id="flow_10_phase1_E_left.1" type="truck" depart="64.00" departLane="1" departPos="79.0964" departSpeed="6.233" speedFactor="0.7665" arrival="118.00">
        <route edges="E_in S_out"/>
    </vehicle>

    <vehicle id="flow_9_phase1_E_straight.3" type="bus" depart="74.00" departLane="1" departPos="80.5996" departSpeed="5.8313" speedFactor="0.8515" arrival="120.00">
        <route edges="E_in W_out"/>
    </vehicle>

    <vehicle id="flow_9_phase1_E_straight.4" type="bus" depart="98.00" departLane="0" departPos="125.4807" departSpeed="6.174" speedFactor="0.9525" arrival="122.00">
        <route edges="E_in W_out"/>
    </vehicle>

    <vehicle id="flow_14_phase1_W_left.1" type="container" depart="66.00" departLane="0" departPos="118.5435" departSpeed="1.3313" speedFactor="0.9146" arrival="135.00">
        <route edges="W_in N_out"/>
    </vehicle>

    <vehicle id="flow_5_phase1_S_straight.4" type="container" depart="101.00" departLane="1" departPos="135.0364" departSpeed="3.7939" speedFactor="0.9706" arrival="139.00">
        <route edges="S_in N_out"/>
    </vehicle>

    <vehicle id="flow_1_phase1_N_straight.4" type="truck" depart="103.00" departLane="0" departPos="91.0122" departSpeed="4.7491" speedFactor="0.9194" arrival="139.00">
        <route edges="N_in S_out"/>
    </vehicle>

    <vehicle id="flow_5_phase1_S_straight.5" type="moto" depart="126.00" departLane="0" departPos="179.131" departSpeed="10.1373" speedFactor="0.8882" arrival="145.00">
        <route edges="S_in N_out"/>
    </vehicle>

    <vehicle id="flow_4_phase1_N_uturn.1" type="moto" depart="126.00" departLane="1" departPos="162.4039" departSpeed="1.3609" speedFactor="0.9517" arrival="150.00">
        <route edges="N_in N_out"/>
    </vehicle>

    <vehicle id="flow_8_phase1_S_uturn.1" type="moto" depart="126.00" departLane="0" departPos="168.2148" departSpeed="0.1906" speedFactor="0.9374" arrival="150.00">
        <route edges="S_in S_out"/>
    </vehicle>

    <vehicle id="flow_7_phase1_S_right.2" type="moto" depart="124.00" departLane="1" departPos="29.1154" departSpeed="11.71" speedFactor="0.9964" arrival="155.00">
        <route edges="S_in E_out"/>
    </vehicle>

    <vehicle id="flow_2_phase1_N_left.2" type="emergency" depart="125.00" departLane="0" departPos="52.573" departSpeed="8.9982" speedFactor="1.0989" arrival="155.00">
        <route edges="N_in E_out"/>
    </vehicle>

    <vehicle id="flow_15_phase1_W_right.2" type="truck" depart="125.00" departLane="1" departPos="112.3734" departSpeed="8.8922" speedFactor="0.9396" arrival="155.00">
        <route edges="N_in N_out"/>
    </vehicle>

    <vehicle id="flow_3_phase1_N_right.2" type="moto" depart="130.00" departLane="1" departPos="63.1043" departSpeed="7.4822" speedFactor="1.1043" arrival="156.00">
        <route edges="N_in W_out"/>
    </vehicle>

    <vehicle id="flow_1_phase1_N_straight.5" type="moto" depart="129.00" departLane="1" departPos="74.602" departSpeed="10.2728" speedFactor="0.9020" arrival="159.00">
        <route edges="N_in S_out"/>
    </vehicle>

    <vehicle id="flow_6_phase1_S_left.2" type="moto" depart="128.00" departLane="1" departPos="124.8757" departSpeed="0.0127" speedFactor="1.0668" arrival="160.00">
        <route edges="S_in W_out"/>
    </vehicle>

    <vehicle id="flow_9_phase1_E_straight.5" type="moto" depart="123.00" departLane="0" departPos="128.0429" departSpeed="5.5839" speedFactor="1.0283" arrival="174.00">
        <route edges="E_in W_out"/>
    </vehicle>

    <vehicle id="flow_11_phase1_E_right.2" type="moto" depart="124.00" departLane="0" departPos="125.7621" departSpeed="5.4752" speedFactor="1.1432" arrival="174.00">
        <route edges="E_in N_out"/>
    </vehicle>

    <vehicle id="flow_12_phase1_E_uturn.1" type="moto" depart="126.00" departLane="0" departPos="31.7588" departSpeed="12.8895" speedFactor="1.0265" arrival="177.00">
        <route edges="E_in E_out"/>
    </vehicle>

    <vehicle id="flow_16_phase1_W_uturn.1" type="truck" depart="126.00" departLane="1" departPos="89.1662" departSpeed="9.897" speedFactor="0.8923" arrival="178.00">
        <route edges="W_in W_out"/>
    </vehicle>

    <vehicle id="flow_13_phase1_W_straight.5" type="moto" depart="128.00" departLane="1" departPos="21.6793" departSpeed="5.9481" speedFactor="1.0390" arrival="180.00">
        <route edges="W_in E_out"/>
    </vehicle>

    <vehicle id="flow_13_phase1_W_straight.4" type="bus" depart="102.00" departLane="0" departPos="26.7631" departSpeed="8.6167" speedFactor="0.8691" arrival="181.00">
        <route edges="W_in E_out"/>
    </vehicle>

    <vehicle id="flow_10_phase1_E_left.2" type="moto" depart="128.00" departLane="1" departPos="92.2234" departSpeed="0.1851" speedFactor="1.1413" arrival="183.00">
        <route edges="E_in S_out"/>
    </vehicle>

    <vehicle id="flow_9_phase1_E_straight.6" type="moto" depart="147.00" departLane="1" departPos="84.296" departSpeed="10.2557" speedFactor="1.0203" arrival="183.00">
        <route edges="E_in W_out"/>
    </vehicle>

    <vehicle id="flow_5_phase1_S_straight.6" type="moto" depart="151.00" departLane="1" departPos="29.8839" departSpeed="12.2398" speedFactor="1.0983" arrival="186.00">
        <route edges="S_in N_out"/>
    </vehicle>

    <vehicle id="flow_14_phase1_W_left.2" type="car" depart="131.00" departLane="1" departPos="84.6621" departSpeed="1.913" speedFactor="0.8975" arrival="187.00">
        <route edges="W_in N_out"/>
    </vehicle>

    <vehicle id="flow_1_phase1_N_straight.6" type="car" depart="155.00" departLane="0" departPos="42.8454" departSpeed="1.3305" speedFactor="0.9797" arrival="187.00">
        <route edges="N_in S_out"/>
    </vehicle>

    <vehicle id="flow_1_phase1_N_straight.7" type="moto" depart="180.00" departLane="0" departPos="174.056" departSpeed="3.2586" speedFactor="1.0626" arrival="198.00">
        <route edges="N_in S_out"/>
    </vehicle>

    <vehicle id="flow_5_phase1_S_straight.7" type="bus" depart="176.00" departLane="0" departPos="161.3057" departSpeed="3.1477" speedFactor="0.9040" arrival="200.00">
        <route edges="S_in N_out"/>
    </vehicle>

    <vehicle id="flow_7_phase1_S_right.3" type="moto" depart="186.00" departLane="1" departPos="76.4696" departSpeed="11.7746" speedFactor="1.0682" arrival="212.00">
        <route edges="S_in E_out"/>
    </vehicle>

    <vehicle id="flow_2_phase1_N_left.3" type="moto" depart="187.00" departLane="1" departPos="126.2936" departSpeed="9.1452" speedFactor="0.8878" arrival="213.00">
        <route edges="N_in E_out"/>
    </vehicle>

    <vehicle id="flow_6_phase1_S_left.3" type="car" depart="191.00" departLane="0" departPos="81.5805" departSpeed="1.2973" speedFactor="1.0972" arrival="218.00">
        <route edges="S_in W_out"/>
    </vehicle>

    <vehicle id="flow_15_phase1_W_right.3" type="moto" depart="188.00" departLane="0" departPos="1.3904" departSpeed="7.2913" speedFactor="1.1705" arrival="220.00">
        <route edges="N_in N_out"/>
    </vehicle>

    <vehicle id="flow_3_phase1_N_right.3" type="moto" depart="195.00" departLane="0" departPos="74.7856" departSpeed="13.1323" speedFactor="0.9618" arrival="223.00">
        <route edges="N_in W_out"/>
    </vehicle>

    <vehicle id="flow_9_phase1_E_straight.7" type="moto" depart="172.00" departLane="1" departPos="174.3479" departSpeed="2.7383" speedFactor="1.0085" arrival="230.00">
        <route edges="E_in W_out"/>
    </vehicle>

    <vehicle id="flow_13_phase1_W_straight.6" type="car" depart="153.00" departLane="0" departPos="149.6933" departSpeed="1.7566" speedFactor="0.9759" arrival="231.00">
        <route edges="W_in E_out"/>
    </vehicle>

    <vehicle id="flow_14_phase1_W_left.3" type="moto" depart="197.00" departLane="1" departPos="103.4641" departSpeed="3.4813" speedFactor="1.0873" arrival="232.00">
        <route edges="W_in N_out"/>
    </vehicle>

    <vehicle id="flow_13_phase1_W_straight.8" type="moto" depart="204.00" departLane="0" departPos="35.6434" departSpeed="3.3434" speedFactor="1.0413" arrival="233.00">
        <route edges="W_in E_out"/>
    </vehicle>

    <vehicle id="flow_13_phase1_W_straight.7" type="moto" depart="179.00" departLane="1" departPos="45.2041" departSpeed="2.1194" speedFactor="0.8003" arrival="234.00">
        <route edges="W_in E_out"/>
    </vehicle>

    <vehicle id="flow_11_phase1_E_right.3" type="moto" depart="186.00" departLane="0" departPos="6.5659" departSpeed="6.595" speedFactor="0.8330" arrival="234.00">
        <route edges="E_in N_out"/>
    </vehicle>

    <vehicle id="flow_9_phase1_E_straight.8" type="moto" depart="196.00" departLane="1" departPos="2.2093" departSpeed="6.8921" speedFactor="0.9385" arrival="236.00">
        <route edges="E_in W_out"/>
    </vehicle>

    <vehicle id="flow_10_phase1_E_left.3" type="truck" depart="191.00" departLane="0" departPos="114.6211" departSpeed="10.9413" speedFactor="1.0651" arrival="240.00">
        <route edges="E_in S_out"/>
    </vehicle>

    <vehicle id="flow_5_phase1_S_straight.8" type="emergency" depart="202.00" departLane="1" departPos="42.0768" departSpeed="14.3132" speedFactor="1.1380" arrival="241.00">
        <route edges="S_in N_out"/>
    </vehicle>

    <vehicle id="flow_1_phase1_N_straight.8" type="moto" depart="206.00" departLane="1" departPos="84.7431" departSpeed="3.5745" speedFactor="0.9730" arrival="244.00">
        <route edges="N_in S_out"/>
    </vehicle>

    <vehicle id="flow_5_phase1_S_straight.9" type="moto" depart="227.00" departLane="1" departPos="69.3051" departSpeed="14.9998" speedFactor="1.2976" arrival="249.00">
        <route edges="S_in N_out"/>
    </vehicle>

    <vehicle id="flow_1_phase1_N_straight.9" type="truck" depart="232.00" departLane="1" departPos="5.9732" departSpeed="0.4239" speedFactor="0.9670" arrival="269.00">
        <route edges="N_in S_out"/>
    </vehicle>

    <vehicle id="flow_7_phase1_S_right.4" type="moto" depart="247.00" departLane="1" departPos="150.7313" departSpeed="0.5302" speedFactor="0.9645" arrival="271.00">
        <route edges="S_in E_out"/>
    </vehicle>

    <vehicle id="flow_2_phase1_N_left.4" type="moto" depart="249.00" departLane="0" departPos="72.9854" departSpeed="7.664" speedFactor="1.1571" arrival="273.00">
        <route edges="N_in E_out"/>
    </vehicle>

    <vehicle id="flow_8_phase1_S_uturn.2" type="bus" depart="251.00" departLane="1" departPos="188.5725" departSpeed="1.0265" speedFactor="0.9032" arrival="274.00">
        <route edges="S_in S_out"/>
    </vehicle>

    <vehicle id="flow_3_phase1_N_right.4" type="moto" depart="260.00" departLane="0" departPos="180.9021" departSpeed="13.0096" speedFactor="1.0387" arrival="278.00">
        <route edges="N_in W_out"/>
    </vehicle>

    <vehicle id="flow_15_phase1_W_right.4" type="moto" depart="250.00" departLane="1" departPos="55.6396" departSpeed="12.2131" speedFactor="0.9897" arrival="280.00">
        <route edges="N_in N_out"/>
    </vehicle>

    <vehicle id="flow_5_phase1_S_straight.10" type="moto" depart="252.00" departLane="0" departPos="2.1035" departSpeed="10.5656" speedFactor="1.0281" arrival="282.00">
        <route edges="S_in N_out"/>
    </vehicle>

    <vehicle id="flow_9_phase1_E_straight.10" type="moto" depart="245.00" departLane="0" departPos="65.0172" departSpeed="3.1319" speedFactor="1.1157" arrival="287.00">
        <route edges="E_in W_out"/>
    </vehicle>

    <vehicle id="flow_4_phase1_N_uturn.2" type="bus" depart="251.00" departLane="1" departPos="60.4969" departSpeed="2.7964" speedFactor="0.9315" arrival="288.00">
        <route edges="N_in N_out"/>
    </vehicle>

    <vehicle id="flow_12_phase1_E_uturn.2" type="car" depart="251.00" departLane="1" departPos="9.1985" departSpeed="9.4057" speedFactor="1.0323" arrival="290.00">
        <route edges="E_in E_out"/>
    </vehicle>

    <vehicle id="flow_9_phase1_E_straight.9" type="truck" depart="221.00" departLane="0" departPos="157.0309" departSpeed="10.5982" speedFactor="1.0019" arrival="291.00">
        <route edges="E_in W_out"/>
    </vehicle>

    <vehicle id="flow_13_phase1_W_straight.9" type="moto" depart="229.00" departLane="1" departPos="109.1161" departSpeed="2.4692" speedFactor="0.8391" arrival="291.00">
        <route edges="W_in E_out"/>
    </vehicle>

    <vehicle id="flow_13_phase1_W_straight.10" type="moto" depart="255.00" departLane="0" departPos="123.2337" departSpeed="13.3863" speedFactor="1.1421" arrival="292.00">
        <route edges="W_in E_out"/>
    </vehicle>

    <vehicle id="flow_16_phase1_W_uturn.2" type="car" depart="252.00" departLane="1" departPos="146.8151" departSpeed="11.3045" speedFactor="0.8850" arrival="294.00">
        <route edges="W_in W_out"/>
    </vehicle>

    <vehicle id="flow_10_phase1_E_left.4" type="moto" depart="255.00" departLane="1" departPos="34.8311" departSpeed="6.5373" speedFactor="1.0039" arrival="296.00">
        <route edges="E_in S_out"/>
    </vehicle>

    <vehicle id="flow_9_phase1_E_straight.11" type="moto" depart="270.00" departLane="1" departPos="149.7816" departSpeed="13.1389" speedFactor="1.0448" arrival="297.00">
        <route edges="E_in W_out"/>
    </vehicle>

    <vehicle id="flow_11_phase1_E_right.4" type="container" depart="247.00" departLane="0" departPos="133.5146" departSpeed="8.1699" speedFactor="1.0240" arrival="303.00">
        <route edges="E_in N_out"/>
    </vehicle>

    <vehicle id="flow_13_phase1_W_straight.11" type="moto" depart="280.00" departLane="0" departPos="60.9644" departSpeed="12.5541" speedFactor="1.0140" arrival="306.00">
        <route edges="W_in E_out"/>
    </vehicle>

    <vehicle id="flow_14_phase1_W_left.4" type="bus" depart="262.00" departLane="0" departPos="62.1003" departSpeed="6.4983" speedFactor="0.8196" arrival="308.00">
        <route edges="W_in N_out"/>
    </vehicle>

    <vehicle id="flow_9_phase1_E_straight.12" type="moto" depart="294.00" departLane="1" departPos="162.1669" departSpeed="13.809" speedFactor="1.0047" arrival="312.00">
        <route edges="E_in W_out"/>
    </vehicle>

    <vehicle id="flow_1_phase1_N_straight.10" type="bus" depart="257.00" departLane="1" departPos="77.131" departSpeed="3.4529" speedFactor="1.0325" arrival="324.00">
        <route edges="N_in S_out"/>
    </vehicle>

    <vehicle id="flow_5_phase1_S_straight.11" type="bus" depart="277.00" departLane="1" departPos="81.1005" departSpeed="0.2232" speedFactor="0.9784" arrival="324.00">
        <route edges="S_in N_out"/>
    </vehicle>

    <vehicle id="flow_1_phase1_N_straight.11" type="truck" depart="283.00" departLane="1" departPos="66.1547" departSpeed="10.8254" speedFactor="0.9137" arrival="324.00">
        <route edges="N_in S_out"/>
    </vehicle>

    <vehicle id="flow_6_phase1_S_left.4" type="moto" depart="255.00" departLane="0" departPos="5.0473" departSpeed="11.5237" speedFactor="1.0387" arrival="326.00">
        <route edges="S_in W_out"/>
    </vehicle>

    <vehicle id="flow_1_phase1_N_straight.12" type="truck" depart="309.00" departLane="0" departPos="169.1917" departSpeed="9.4173" speedFactor="0.9615" arrival="329.00">
        <route edges="N_in S_out"/>
    </vehicle>

    <vehicle id="flow_7_phase1_S_right.5" type="truck" depart="309.00" departLane="1" departPos="170.5857" departSpeed="9.2533" speedFactor="1.0532" arrival="329.00">
        <route edges="S_in E_out"/>
    </vehicle>

    <vehicle id="flow_5_phase1_S_straight.12" type="moto" depart="302.00" departLane="1" departPos="11.9624" departSpeed="0.8453" speedFactor="1.0699" arrival="333.00">
        <route edges="S_in N_out"/>
    </vehicle>

    <vehicle id="flow_2_phase1_N_left.5" type="car" depart="311.00" departLane="0" departPos="28.3376" departSpeed="10.0561" speedFactor="0.8868" arrival="346.00">
        <route edges="N_in E_out"/>
    </vehicle>

    <vehicle id="flow_15_phase1_W_right.5" type="car" depart="312.00" departLane="1" departPos="21.3277" departSpeed="6.8775" speedFactor="0.9653" arrival="347.00">
        <route edges="N_in N_out"/>
    </vehicle>

    <vehicle id="flow_5_phase1_S_straight.13" type="moto" depart="327.00" departLane="1" departPos="50.8725" departSpeed="13.6675" speedFactor="1.2148" arrival="353.00">
        <route edges="S_in N_out"/>
    </vehicle>

    <vehicle id="flow_3_phase1_N_right.5" type="moto" depart="325.00" departLane="0" departPos="98.6919" departSpeed="1.5056" speedFactor="0.9059" arrival="354.00">
        <route edges="N_in W_out"/>
    </vehicle>

    <vehicle id="flow_1_phase1_N_straight.13" type="truck" depart="334.00" departLane="1" departPos="120.4896" departSpeed="13.029" speedFactor="0.9465" arrival="356.00">
        <route edges="N_in S_out"/>
    </vehicle>

    <vehicle id="flow_11_phase1_E_right.5" type="moto" depart="309.00" departLane="0" departPos="128.7404" departSpeed="4.1812" speedFactor="1.2552" arrival="362.00">
        <route edges="E_in N_out"/>
    </vehicle>

    <vehicle id="flow_13_phase1_W_straight.12" type="moto" depart="306.00" departLane="1" departPos="102.4537" departSpeed="0.6809" speedFactor="1.1365" arrival="364.00">
        <route edges="W_in E_out"/>
    </vehicle>

    <vehicle id="flow_6_phase1_S_left.5" type="bus" depart="318.00" departLane="1" departPos="38.4375" departSpeed="1.1216" speedFactor="0.9819" arrival="366.00">
        <route edges="S_in W_out"/>
    </vehicle>

    <vehicle id="flow_9_phase1_E_straight.13" type="moto" depart="319.00" departLane="0" departPos="170.7684" departSpeed="5.4556" speedFactor="0.9282" arrival="368.00">
        <route edges="E_in W_out"/>
    </vehicle>

    <vehicle id="flow_13_phase1_W_straight.13" type="moto" depart="331.00" departLane="0" departPos="114.397" departSpeed="12.033" speedFactor="0.8917" arrival="369.00">
        <route edges="W_in E_out"/>
    </vehicle>

    <vehicle id="flow_10_phase1_E_left.5" type="moto" depart="319.00" departLane="1" departPos="167.1176" departSpeed="0.9094" speedFactor="1.0856" arrival="370.00">
        <route edges="E_in S_out"/>
    </vehicle>

    <vehicle id="flow_9_phase1_E_straight.14" type="moto" depart="343.00" departLane="1" departPos="0.9771" departSpeed="7.3151" speedFactor="0.8543" arrival="379.00">
        <route edges="E_in W_out"/>
    </vehicle>

    <vehicle id="flow_13_phase1_W_straight.14" type="moto" depart="357.00" departLane="0" departPos="27.7577" departSpeed="13.5225" speedFactor="1.1523" arrival="382.00">
        <route edges="W_in E_out"/>
    </vehicle>

    <vehicle id="flow_14_phase1_W_left.5" type="bus" depart="328.00" departLane="1" departPos="43.1771" departSpeed="3.1487" speedFactor="0.9554" arrival="385.00">
        <route edges="W_in N_out"/>
    </vehicle>

    <vehicle id="flow_11_phase1_E_right.6" type="car" depart="371.00" departLane="0" departPos="142.3358" departSpeed="9.2163" speedFactor="0.9838" arrival="393.00">
        <route edges="E_in N_out"/>
    </vehicle>

    <vehicle id="flow_13_phase1_W_straight.15" type="car" depart="382.00" departLane="1" departPos="181.1813" departSpeed="3.5149" speedFactor="1.0262" arrival="400.00">
        <route edges="W_in E_out"/>
    </vehicle>

    <vehicle id="flow_9_phase1_E_straight.15" type="bus" depart="367.00" departLane="0" departPos="7.5649" departSpeed="9.949" speedFactor="0.8815" arrival="401.00">
        <route edges="E_in W_out"/>
    </vehicle>

    <vehicle id="flow_12_phase1_E_uturn.3" type="car" depart="376.00" departLane="1" departPos="105.322" departSpeed="5.6521" speedFactor="0.9559" arrival="405.00">
        <route edges="E_in E_out"/>
    </vehicle>

    <vehicle id="flow_10_phase1_E_left.6" type="bus" depart="382.00" departLane="0" departPos="53.9093" departSpeed="11.0539" speedFactor="0.9234" arrival="412.00">
        <route edges="E_in S_out"/>
    </vehicle>

    <vehicle id="flow_16_phase1_W_uturn.3" type="bus" depart="378.00" departLane="0" departPos="33.0225" departSpeed="7.9748" speedFactor="0.9363" arrival="414.00">
        <route edges="W_in W_out"/>
    </vehicle>

    <vehicle id="flow_1_phase1_N_straight.14" type="car" depart="360.00" departLane="1" departPos="22.618" departSpeed="0.1933" speedFactor="0.9718" arrival="415.00">
        <route edges="N_in S_out"/>
    </vehicle>

    <vehicle id="flow_7_phase1_S_right.6" type="car" depart="371.00" departLane="0" departPos="180.2387" departSpeed="0.822" speedFactor="1.1275" arrival="415.00">
        <route edges="S_in E_out"/>
    </vehicle>

    <vehicle id="flow_5_phase1_S_straight.14" type="car" depart="352.00" departLane="1" departPos="138.898" departSpeed="9.7451" speedFactor="0.8047" arrival="418.00">
        <route edges="S_in N_out"/>
    </vehicle>

    <vehicle id="flow_3_phase1_N_right.6" type="truck" depart="390.00" departLane="1" departPos="175.2569" departSpeed="1.438" speedFactor="0.9035" arrival="421.00">
        <route edges="N_in W_out"/>
    </vehicle>

    <vehicle id="flow_8_phase1_S_uturn.3" type="moto" depart="376.00" departLane="0" departPos="103.1972" departSpeed="7.8157" speedFactor="1.0747" arrival="422.00">
        <route edges="S_in S_out"/>
    </vehicle>

    <vehicle id="flow_5_phase1_S_straight.15" type="container" depart="378.00" departLane="1" departPos="177.2083" departSpeed="6.6302" speedFactor="0.9628" arrival="423.00">
        <route edges="S_in N_out"/>
    </vehicle>

    <vehicle id="flow_1_phase1_N_straight.15" type="car" depart="386.00" departLane="1" departPos="73.7109" departSpeed="7.6875" speedFactor="0.9311" arrival="423.00">
        <route edges="N_in S_out"/>
    </vehicle>
