<?xml version="1.0" encoding="UTF-8"?>

<!-- generated on 2025-12-12 07:57:58 by Eclipse SUMO sumo Version 1.18.0
<configuration xmlns:xsi="http://www.w3.org/2001/XMLSchema-instance" xsi:noNamespaceSchemaLocation="http://sumo.dlr.de/xsd/sumoConfiguration.xsd">

    <input>
        <net-file value="/workspace/nets/60p2k/net.net.xml"/>
        <route-files value="/workspace/nets/60p2k/route_temp_184_136390791920128_51269849.rou.xml"/>
    </input>

    <output>
        <summary-output value="../result_random/60p2k_e/llirl/summary_ep_2.xml"/>
        <tripinfo-output value="../result_random/60p2k_e/llirl/tripinfo_ep_2.xml"/>
        <vehroute-output value="../result_random/60p2k_e/llirl/vehroute_ep_2.xml"/>
    </output>

    <time>
        <begin value="0"/>
    </time>

    <report>
        <verbose value="true"/>
        <no-step-log value="true"/>
    </report>

    <traci_server>
        <remote-port value="38707"/>
    </traci_server>

    <gui_only>
        <gui-settings-file value="/workspace/nets/60p2k/gui-settings.xml"/>
        <quit-on-end value="true"/>
    </gui_only>

</configuration>
-->

<routes xmlns:xsi="http://www.w3.org/2001/XMLSchema-instance" xsi:noNamespaceSchemaLocation="http://sumo.dlr.de/xsd/routes_file.xsd">
    <vehicle id="flow_8_phase1_S_uturn.0" type="moto" depart="0.00" departLane="0" departPos="156.2887" departSpeed="13.7118" speedFactor="1.0505" arrival="21.00">
        <route edges="S_in S_out"/>
    </vehicle>

    <vehicle id="flow_5_phase1_S_straight.0" type="moto" depart="0.00" departLane="1" departPos="107.3659" departSpeed="7.2113" speedFactor="1.1475" arrival="22.00">
        <route edges="S_in N_out"/>
    </vehicle>

    <vehicle id="flow_3_phase1_N_right.0" type="car" depart="0.00" departLane="0" departPos="103.3842" departSpeed="3.7523" speedFactor="1.0907" arrival="24.00">
        <route edges="N_in W_out"/>
    </vehicle>

    <vehicle id="flow_6_phase1_S_left.0" type="moto" depart="0.00" departLane="1" departPos="166.0107" departSpeed="0.7376" speedFactor="0.8806" arrival="26.00">
        <route edges="S_in W_out"/>
    </vehicle>

    <vehicle id="flow_4_phase1_N_uturn.0" type="car" depart="0.00" departLane="1" departPos="127.6015" departSpeed="0.0774" speedFactor="0.9228" arrival="29.00">
        <route edges="N_in N_out"/>
    </vehicle>

    <vehicle id="flow_2_phase1_N_left.0" type="moto" depart="0.00" departLane="1" departPos="8.2688" departSpeed="8.3291" speedFactor="1.0157" arrival="31.00">
        <route edges="N_in E_out"/>
    </vehicle>

    <vehicle id="flow_7_phase1_S_right.0" type="container" depart="0.00" departLane="0" departPos="58.2193" departSpeed="8.0654" speedFactor="0.8488" arrival="31.00">
        <route edges="N_in S_out"/>
    </vehicle>

    <vehicle id="flow_9_phase1_E_straight.0" type="truck" depart="0.00" departLane="1" departPos="103.2018" departSpeed="4.9557" speedFactor="0.8990" arrival="41.00">
        <route edges="E_in W_out"/>
    </vehicle>

    <vehicle id="flow_11_phase1_E_right.0" type="bus" depart="0.00" departLane="0" departPos="181.3695" departSpeed="2.1189" speedFactor="0.9581" arrival="42.00">
        <route edges="W_in E_out"/>
    </vehicle>

    <vehicle id="flow_9_phase1_E_straight.1" type="moto" depart="13.00" departLane="1" departPos="58.3562" departSpeed="11.0657" speedFactor="1.1582" arrival="43.00">
        <route edges="E_in W_out"/>
    </vehicle>

    <vehicle id="flow_12_phase1_E_uturn.0" type="moto" depart="0.00" departLane="1" departPos="62.8159" departSpeed="9.8539" speedFactor="1.0348" arrival="44.00">
        <route edges="E_in E_out"/>
    </vehicle>

    <vehicle id="flow_15_phase1_W_right.0" type="moto" depart="0.00" departLane="1" departPos="153.8984" departSpeed="6.7313" speedFactor="0.8472" arrival="44.00">
        <route edges="W_in S_out"/>
    </vehicle>

    <vehicle id="flow_16_phase1_W_uturn.0" type="moto" depart="0.00" departLane="0" departPos="135.6701" departSpeed="9.6426" speedFactor="1.0383" arrival="45.00">
        <route edges="W_in S_out"/>
    </vehicle>

    <vehicle id="flow_14_phase1_W_left.0" type="moto" depart="0.00" departLane="1" departPos="42.3057" departSpeed="3.7077" speedFactor="1.0101" arrival="46.00">
        <route edges="W_in N_out"/>
    </vehicle>

    <vehicle id="flow_5_phase1_S_straight.1" type="moto" depart="14.00" departLane="1" departPos="121.6549" departSpeed="2.9337" speedFactor="1.1853" arrival="47.00">
        <route edges="S_in N_out"/>
    </vehicle>

    <vehicle id="flow_1_phase1_N_straight.1" type="moto" depart="14.00" departLane="1" departPos="31.9285" departSpeed="7.0365" speedFactor="0.8727" arrival="51.00">
        <route edges="N_in S_out"/>
    </vehicle>

    <vehicle id="flow_1_phase1_N_straight.0" type="bus" depart="0.00" departLane="0" departPos="8.6229" departSpeed="8.5053" speedFactor="0.8588" arrival="55.00">
        <route edges="N_in S_out"/>
    </vehicle>

    <vehicle id="flow_6_phase1_S_left.1" type="moto" depart="34.00" departLane="1" departPos="185.2056" departSpeed="4.3934" speedFactor="1.0453" arrival="56.00">
        <route edges="S_in W_out"/>
    </vehicle>

    <vehicle id="flow_3_phase1_N_right.1" type="moto" depart="35.00" departLane="1" departPos="175.3621" departSpeed="7.653" speedFactor="0.8806" arrival="56.00">
        <route edges="N_in W_out"/>
    </vehicle>

    <vehicle id="flow_5_phase1_S_straight.2" type="moto" depart="27.00" departLane="1" departPos="59.5081" departSpeed="13.2726" speedFactor="0.9623" arrival="58.00">
        <route edges="S_in N_out"/>
    </vehicle>

    <vehicle id="flow_13_phase1_W_straight.1" type="car" depart="14.00" departLane="1" departPos="52.8684" departSpeed="0.4341" speedFactor="1.1218" arrival="61.00">
        <route edges="W_in E_out"/>
    </vehicle>

    <vehicle id="flow_15_phase1_W_right.1" type="moto" depart="33.00" departLane="1" departPos="110.9191" departSpeed="7.7034" speedFactor="1.0788" arrival="63.00">
        <route edges="W_in S_out"/>
    </vehicle>

    <vehicle id="flow_11_phase1_E_right.1" type="moto" depart="33.00" departLane="0" departPos="73.8966" departSpeed="8.8622" speedFactor="1.0365" arrival="65.00">
        <route edges="W_in E_out"/>
    </vehicle>

    <vehicle id="flow_9_phase1_E_straight.3" type="bus" depart="39.00" departLane="0" departPos="184.1938" departSpeed="4.2026" speedFactor="0.8515" arrival="68.00">
        <route edges="E_in W_out"/>
    </vehicle>

    <vehicle id="flow_9_phase1_E_straight.2" type="moto" depart="26.00" departLane="1" departPos="12.6982" departSpeed="12.8207" speedFactor="0.9938" arrival="70.00">
        <route edges="E_in W_out"/>
    </vehicle>

    <vehicle id="flow_13_phase1_W_straight.0" type="container" depart="0.00" departLane="0" departPos="77.991" departSpeed="1.4338" speedFactor="0.8227" arrival="71.00">
        <route edges="W_in E_out"/>
    </vehicle>

    <vehicle id="flow_13_phase1_W_straight.2" type="bus" depart="27.00" departLane="1" departPos="107.5311" departSpeed="1.1546" speedFactor="0.9657" arrival="73.00">
        <route edges="W_in E_out"/>
    </vehicle>

    <vehicle id="flow_1_phase1_N_straight.2" type="moto" depart="28.00" departLane="0" departPos="8.8817" departSpeed="2.3302" speedFactor="0.9279" arrival="76.00">
        <route edges="N_in S_out"/>
    </vehicle>

    <vehicle id="flow_14_phase1_W_left.1" type="container" depart="35.00" departLane="0" departPos="86.4153" departSpeed="5.4043" speedFactor="0.9146" arrival="77.00">
        <route edges="W_in N_out"/>
    </vehicle>

    <vehicle id="flow_5_phase1_S_straight.3" type="moto" depart="40.00" departLane="0" departPos="65.0085" departSpeed="6.1506" speedFactor="1.0764" arrival="78.00">
        <route edges="S_in N_out"/>
    </vehicle>

    <vehicle id="flow_1_phase1_N_straight.3" type="moto" depart="41.00" departLane="1" departPos="88.4153" departSpeed="1.6244" speedFactor="1.2027" arrival="78.00">
        <route edges="N_in S_out"/>
    </vehicle>

    <vehicle id="flow_10_phase1_E_left.0" type="truck" depart="0.00" departLane="1" departPos="57.2141" departSpeed="0.4579" speedFactor="1.0161" arrival="79.00">
        <route edges="E_in S_out"/>
    </vehicle>

    <vehicle id="flow_5_phase1_S_straight.4" type="container" depart="54.00" departLane="0" departPos="70.4575" departSpeed="11.8993" speedFactor="0.9706" arrival="80.00">
        <route edges="S_in N_out"/>
    </vehicle>

    <vehicle id="flow_2_phase1_N_left.1" type="moto" depart="33.00" departLane="1" departPos="66.71" departSpeed="11.2663" speedFactor="1.1228" arrival="82.00">
        <route edges="N_in E_out"/>
    </vehicle>

    <vehicle id="flow_7_phase1_S_right.1" type="container" depart="33.00" departLane="1" departPos="128.6773" departSpeed="2.3158" speedFactor="0.7845" arrival="89.00">
        <route edges="N_in S_out"/>
    </vehicle>

    <vehicle id="flow_13_phase1_W_straight.3" type="car" depart="41.00" departLane="1" departPos="53.3168" departSpeed="11.3759" speedFactor="1.0479" arrival="89.00">
        <route edges="W_in E_out"/>
    </vehicle>

    <vehicle id="flow_9_phase1_E_straight.4" type="bus" depart="52.00" departLane="0" departPos="135.2371" departSpeed="1.6457" speedFactor="0.9525" arrival="93.00">
        <route edges="E_in W_out"/>
    </vehicle>

    <vehicle id="flow_11_phase1_E_right.2" type="emergency" depart="66.00" departLane="1" departPos="19.5053" departSpeed="8.7576" speedFactor="1.0989" arrival="93.00">
        <route edges="W_in E_out"/>
    </vehicle>

    <vehicle id="flow_13_phase1_W_straight.4" type="bus" depart="54.00" departLane="1" departPos="74.0695" departSpeed="0.5146" speedFactor="0.8691" arrival="95.00">
        <route edges="W_in E_out"/>
    </vehicle>

    <vehicle id="flow_9_phase1_E_straight.5" type="moto" depart="65.00" departLane="1" departPos="65.3279" departSpeed="12.9273" speedFactor="1.0283" arrival="95.00">
        <route edges="E_in W_out"/>
    </vehicle>

    <vehicle id="flow_16_phase1_W_uturn.1" type="truck" depart="67.00" departLane="1" departPos="174.172" departSpeed="8.1423" speedFactor="0.8923" arrival="100.00">
        <route edges="W_in S_out"/>
    </vehicle>

    <vehicle id="flow_1_phase1_N_straight.5" type="moto" depart="68.00" departLane="1" departPos="172.3747" departSpeed="5.9356" speedFactor="1.0668" arrival="101.00">
        <route edges="N_in S_out"/>
    </vehicle>

    <vehicle id="flow_7_phase1_S_right.2" type="moto" depart="66.00" departLane="1" departPos="129.0888" departSpeed="6.0297" speedFactor="1.1432" arrival="103.00">
        <route edges="N_in S_out"/>
    </vehicle>

    <vehicle id="flow_3_phase1_N_right.2" type="moto" depart="69.00" departLane="1" departPos="39.3431" departSpeed="5.1088" speedFactor="1.1043" arrival="103.00">
        <route edges="N_in W_out"/>
    </vehicle>

    <vehicle id="flow_5_phase1_S_straight.5" type="moto" depart="67.00" departLane="1" departPos="65.5698" departSpeed="2.1826" speedFactor="0.9374" arrival="104.00">
        <route edges="S_in N_out"/>
    </vehicle>

    <vehicle id="flow_5_phase1_S_straight.6" type="moto" depart="80.00" departLane="0" departPos="149.6933" departSpeed="1.9769" speedFactor="1.0983" arrival="105.00">
        <route edges="S_in N_out"/>
    </vehicle>

    <vehicle id="flow_10_phase1_E_left.1" type="truck" depart="34.00" departLane="0" departPos="19.8546" departSpeed="3.2255" speedFactor="0.7665" arrival="106.00">
        <route edges="E_in S_out"/>
    </vehicle>

    <vehicle id="flow_1_phase1_N_straight.4" type="truck" depart="55.00" departLane="1" departPos="160.3044" departSpeed="5.6963" speedFactor="0.9194" arrival="106.00">
        <route edges="N_in S_out"/>
    </vehicle>

    <vehicle id="flow_6_phase1_S_left.2" type="moto" depart="68.00" departLane="0" departPos="161.4056" departSpeed="1.8139" speedFactor="1.1413" arrival="106.00">
        <route edges="S_in W_out"/>
    </vehicle>

    <vehicle id="flow_2_phase1_N_left.2" type="moto" depart="66.00" departLane="1" departPos="111.6918" departSpeed="5.9674" speedFactor="0.9964" arrival="107.00">
        <route edges="N_in E_out"/>
    </vehicle>

    <vehicle id="flow_4_phase1_N_uturn.1" type="moto" depart="67.00" departLane="0" departPos="91.5182" departSpeed="10.9535" speedFactor="0.8882" arrival="110.00">
        <route edges="N_in N_out"/>
    </vehicle>

    <vehicle id="flow_8_phase1_S_uturn.1" type="moto" depart="67.00" departLane="0" departPos="64.2471" departSpeed="6.7102" speedFactor="1.0265" arrival="110.00">
        <route edges="S_in S_out"/>
    </vehicle>

    <vehicle id="flow_9_phase1_E_straight.6" type="moto" depart="78.00" departLane="1" departPos="29.8839" departSpeed="11.3705" speedFactor="1.0203" arrival="114.00">
        <route edges="E_in W_out"/>
    </vehicle>

    <vehicle id="flow_15_phase1_W_right.2" type="moto" depart="66.00" departLane="1" departPos="2.773" departSpeed="7.2657" speedFactor="0.9517" arrival="116.00">
        <route edges="W_in S_out"/>
    </vehicle>

    <vehicle id="flow_13_phase1_W_straight.5" type="moto" depart="68.00" departLane="0" departPos="87.7633" departSpeed="9.8301" speedFactor="0.9020" arrival="116.00">
        <route edges="W_in E_out"/>
    </vehicle>

    <vehicle id="flow_9_phase1_E_straight.7" type="moto" depart="91.00" departLane="1" departPos="88.3207" departSpeed="11.9262" speedFactor="1.0085" arrival="117.00">
        <route edges="E_in W_out"/>
    </vehicle>

    <vehicle id="flow_15_phase1_W_right.3" type="moto" depart="99.00" departLane="0" departPos="150.3232" departSpeed="6.8844" speedFactor="1.1705" arrival="119.00">
        <route edges="W_in S_out"/>
    </vehicle>

    <vehicle id="flow_14_phase1_W_left.2" type="car" depart="70.00" departLane="0" departPos="84.296" departSpeed="5.5706" speedFactor="0.8975" arrival="122.00">
        <route edges="W_in N_out"/>
    </vehicle>

    <vehicle id="flow_13_phase1_W_straight.6" type="car" depart="81.00" departLane="0" departPos="42.8454" departSpeed="1.3253" speedFactor="0.9759" arrival="124.00">
        <route edges="W_in E_out"/>
    </vehicle>

    <vehicle id="flow_7_phase1_S_right.3" type="moto" depart="98.00" departLane="1" departPos="142.1182" departSpeed="0.5142" speedFactor="1.0682" arrival="127.00">
        <route edges="N_in S_out"/>
    </vehicle>

    <vehicle id="flow_1_phase1_N_straight.6" type="car" depart="82.00" departLane="1" departPos="60.8307" departSpeed="2.6601" speedFactor="0.9797" arrival="128.00">
        <route edges="N_in S_out"/>
    </vehicle>

    <vehicle id="flow_1_phase1_N_straight.7" type="moto" depart="95.00" departLane="0" departPos="16.037" departSpeed="5.9571" speedFactor="1.0626" arrival="129.00">
        <route edges="N_in S_out"/>
    </vehicle>

    <vehicle id="flow_6_phase1_S_left.3" type="car" depart="101.00" departLane="0" departPos="36.1365" departSpeed="9.2199" speedFactor="1.0972" arrival="131.00">
        <route edges="S_in W_out"/>
    </vehicle>

    <vehicle id="flow_3_phase1_N_right.3" type="moto" depart="103.00" departLane="1" departPos="109.812" departSpeed="0.1558" speedFactor="0.9618" arrival="131.00">
        <route edges="N_in W_out"/>
    </vehicle>

    <vehicle id="flow_5_phase1_S_straight.8" type="emergency" depart="107.00" departLane="0" departPos="65.7387" departSpeed="2.9737" speedFactor="1.1380" arrival="131.00">
        <route edges="S_in N_out"/>
    </vehicle>

    <vehicle id="flow_5_phase1_S_straight.7" type="bus" depart="93.00" departLane="0" departPos="178.3578" departSpeed="2.9959" speedFactor="0.9040" arrival="133.00">
        <route edges="S_in N_out"/>
    </vehicle>

    <vehicle id="flow_12_phase1_E_uturn.1" type="truck" depart="66.00" departLane="0" departPos="155.6805" departSpeed="8.3733" speedFactor="0.9396" arrival="135.00">
        <route edges="E_in E_out"/>
    </vehicle>

    <vehicle id="flow_2_phase1_N_left.3" type="moto" depart="99.00" departLane="1" departPos="111.5719" departSpeed="0.0905" speedFactor="0.8878" arrival="139.00">
        <route edges="N_in E_out"/>
    </vehicle>

    <vehicle id="flow_9_phase1_E_straight.8" type="moto" depart="104.00" departLane="0" departPos="178.6166" departSpeed="7.1187" speedFactor="0.9385" arrival="142.00">
        <route edges="E_in W_out"/>
    </vehicle>

    <vehicle id="flow_13_phase1_W_straight.7" type="moto" depart="94.00" departLane="1" departPos="107.805" departSpeed="10.2122" speedFactor="0.8003" arrival="144.00">
        <route edges="W_in E_out"/>
    </vehicle>

    <vehicle id="flow_14_phase1_W_left.3" type="moto" depart="104.00" departLane="0" departPos="173.6034" departSpeed="3.354" speedFactor="1.0873" arrival="144.00">
        <route edges="W_in N_out"/>
    </vehicle>

    <vehicle id="flow_13_phase1_W_straight.8" type="moto" depart="108.00" departLane="1" departPos="57.3268" departSpeed="6.4693" speedFactor="1.0413" arrival="145.00">
        <route edges="W_in E_out"/>
    </vehicle>

    <vehicle id="flow_13_phase1_W_straight.9" type="moto" depart="121.00" departLane="0" departPos="174.1059" departSpeed="0.3674" speedFactor="0.8391" arrival="145.00">
        <route edges="W_in E_out"/>
    </vehicle>

    <vehicle id="flow_10_phase1_E_left.2" type="moto" depart="68.00" departLane="1" departPos="92.4194" departSpeed="5.6825" speedFactor="1.0390" arrival="149.00">
        <route edges="E_in S_out"/>
    </vehicle>

    <vehicle id="flow_11_phase1_E_right.3" type="moto" depart="98.00" departLane="1" departPos="22.6438" departSpeed="7.7126" speedFactor="0.8330" arrival="149.00">
        <route edges="W_in E_out"/>
    </vehicle>

    <vehicle id="flow_1_phase1_N_straight.8" type="moto" depart="109.00" departLane="1" departPos="58.7528" departSpeed="11.2015" speedFactor="0.9730" arrival="153.00">
        <route edges="N_in S_out"/>
    </vehicle>

    <vehicle id="flow_10_phase1_E_left.3" type="truck" depart="101.00" departLane="1" departPos="20.793" departSpeed="5.8396" speedFactor="1.0651" arrival="154.00">
        <route edges="E_in S_out"/>
    </vehicle>

    <vehicle id="flow_5_phase1_S_straight.9" type="moto" depart="120.00" departLane="1" departPos="9.2851" departSpeed="9.2081" speedFactor="1.2976" arrival="155.00">
        <route edges="S_in N_out"/>
    </vehicle>

    <vehicle id="flow_3_phase1_N_right.4" type="moto" depart="138.00" departLane="0" departPos="180.9021" departSpeed="10.409" speedFactor="1.0387" arrival="156.00">
        <route edges="N_in W_out"/>
    </vehicle>

    <vehicle id="flow_1_phase1_N_straight.9" type="truck" depart="122.00" departLane="1" departPos="53.9882" departSpeed="4.6093" speedFactor="0.9670" arrival="157.00">
        <route edges="N_in S_out"/>
    </vehicle>

    <vehicle id="flow_7_phase1_S_right.4" type="moto" depart="131.00" departLane="1" departPos="90.2975" departSpeed="6.7962" speedFactor="0.9645" arrival="159.00">
        <route edges="N_in S_out"/>
    </vehicle>

    <vehicle id="flow_2_phase1_N_left.4" type="moto" depart="132.00" departLane="1" departPos="55.6396" departSpeed="5.4621" speedFactor="1.1571" arrival="160.00">
        <route edges="N_in E_out"/>
    </vehicle>

    <vehicle id="flow_8_phase1_S_uturn.2" type="moto" depart="133.00" departLane="1" departPos="146.8151" departSpeed="13.1323" speedFactor="1.0281" arrival="161.00">
        <route edges="S_in S_out"/>
    </vehicle>

    <vehicle id="flow_1_phase1_N_straight.10" type="bus" depart="136.00" departLane="0" departPos="77.131" departSpeed="7.2663" speedFactor="1.0325" arrival="161.00">
        <route edges="N_in S_out"/>
    </vehicle>

    <vehicle id="flow_9_phase1_E_straight.10" type="moto" depart="130.00" departLane="1" departPos="103.2677" departSpeed="12.329" speedFactor="1.1157" arrival="165.00">
        <route edges="E_in W_out"/>
    </vehicle>

    <vehicle id="flow_9_phase1_E_straight.9" type="truck" depart="117.00" departLane="0" departPos="2.521" departSpeed="5.0906" speedFactor="1.0019" arrival="170.00">
        <route edges="E_in W_out"/>
    </vehicle>

    <vehicle id="flow_13_phase1_W_straight.10" type="moto" depart="135.00" departLane="0" departPos="45.6162" departSpeed="14.6976" speedFactor="1.1421" arrival="170.00">
        <route edges="W_in E_out"/>
    </vehicle>

    <vehicle id="flow_15_phase1_W_right.4" type="bus" depart="132.00" departLane="1" departPos="188.5725" departSpeed="1.0265" speedFactor="0.9315" arrival="171.00">
        <route edges="W_in S_out"/>
    </vehicle>

    <vehicle id="flow_9_phase1_E_straight.11" type="moto" depart="142.00" departLane="1" departPos="149.7816" departSpeed="13.1797" speedFactor="1.0448" arrival="173.00">
        <route edges="E_in W_out"/>
    </vehicle>

    <vehicle id="flow_11_phase1_E_right.4" type="container" depart="131.00" departLane="1" departPos="90.8186" departSpeed="11.1509" speedFactor="1.0240" arrival="175.00">
        <route edges="W_in E_out"/>
    </vehicle>

    <vehicle id="flow_16_phase1_W_uturn.2" type="car" depart="133.00" departLane="0" departPos="5.0473" departSpeed="9.8185" speedFactor="0.8850" arrival="175.00">
        <route edges="W_in S_out"/>
    </vehicle>

    <vehicle id="flow_10_phase1_E_left.4" type="moto" depart="135.00" departLane="1" departPos="159.8742" departSpeed="7.3882" speedFactor="1.0039" arrival="176.00">
        <route edges="E_in S_out"/>
    </vehicle>

    <vehicle id="flow_12_phase1_E_uturn.2" type="moto" depart="132.00" departLane="1" departPos="60.4969" departSpeed="2.9711" speedFactor="0.9897" arrival="177.00">
        <route edges="E_in E_out"/>
    </vehicle>

    <vehicle id="flow_5_phase1_S_straight.10" type="car" depart="133.00" departLane="0" departPos="2.1035" departSpeed="10.6088" speedFactor="1.0323" arrival="179.00">
        <route edges="S_in N_out"/>
    </vehicle>

    <vehicle id="flow_14_phase1_W_left.4" type="bus" depart="139.00" departLane="0" departPos="62.1003" departSpeed="6.4983" speedFactor="0.8196" arrival="183.00">
        <route edges="W_in N_out"/>
    </vehicle>

    <vehicle id="flow_1_phase1_N_straight.11" type="truck" depart="150.00" departLane="1" departPos="66.1547" departSpeed="10.8254" speedFactor="0.9137" arrival="184.00">
        <route edges="N_in S_out"/>
    </vehicle>

    <vehicle id="flow_6_phase1_S_left.4" type="moto" depart="135.00" departLane="1" departPos="75.2144" departSpeed="6.7639" speedFactor="1.0387" arrival="186.00">
        <route edges="S_in W_out"/>
    </vehicle>

    <vehicle id="flow_5_phase1_S_straight.11" type="bus" depart="146.00" departLane="1" departPos="81.1005" departSpeed="0.2232" speedFactor="0.9784" arrival="191.00">
        <route edges="S_in N_out"/>
    </vehicle>

    <vehicle id="flow_13_phase1_W_straight.12" type="moto" depart="161.00" departLane="0" departPos="129.443" departSpeed="8.5364" speedFactor="1.1365" arrival="191.00">
        <route edges="W_in E_out"/>
    </vehicle>

    <vehicle id="flow_13_phase1_W_straight.11" type="moto" depart="148.00" departLane="0" departPos="60.9644" departSpeed="12.5541" speedFactor="1.0140" arrival="192.00">
        <route edges="W_in E_out"/>
    </vehicle>

    <vehicle id="flow_4_phase1_N_uturn.2" type="bus" depart="133.00" departLane="1" departPos="9.1985" departSpeed="8.2294" speedFactor="0.9032" arrival="193.00">
        <route edges="N_in N_out"/>
    </vehicle>

    <vehicle id="flow_11_phase1_E_right.5" type="moto" depart="163.00" departLane="0" departPos="72.1694" departSpeed="10.8642" speedFactor="1.2552" arrival="193.00">
        <route edges="W_in E_out"/>
    </vehicle>

    <vehicle id="flow_9_phase1_E_straight.12" type="moto" depart="155.00" departLane="1" departPos="162.1669" departSpeed="13.1078" speedFactor="1.0047" arrival="194.00">
        <route edges="E_in W_out"/>
    </vehicle>

    <vehicle id="flow_9_phase1_E_straight.13" type="moto" depart="168.00" departLane="1" departPos="184.7809" departSpeed="4.6591" speedFactor="0.9282" arrival="194.00">
        <route edges="E_in W_out"/>
    </vehicle>

    <vehicle id="flow_13_phase1_W_straight.13" type="moto" depart="175.00" departLane="0" departPos="162.3176" departSpeed="7.4784" speedFactor="0.8917" arrival="197.00">
        <route edges="W_in E_out"/>
    </vehicle>

    <vehicle id="flow_10_phase1_E_left.5" type="moto" depart="168.00" departLane="1" departPos="100.5913" departSpeed="13.3005" speedFactor="1.0856" arrival="198.00">
        <route edges="E_in S_out"/>
    </vehicle>

    <vehicle id="flow_15_phase1_W_right.5" type="car" depart="165.00" departLane="0" departPos="15.88" departSpeed="1.5093" speedFactor="0.9653" arrival="199.00">
        <route edges="W_in S_out"/>
    </vehicle>

    <vehicle id="flow_14_phase1_W_left.5" type="bus" depart="173.00" departLane="1" departPos="177.3408" departSpeed="3.0242" speedFactor="0.9554" arrival="201.00">
        <route edges="W_in N_out"/>
    </vehicle>

    <vehicle id="flow_5_phase1_S_straight.12" type="moto" depart="160.00" departLane="1" departPos="47.2903" departSpeed="0.8453" speedFactor="1.0699" arrival="205.00">
        <route edges="S_in N_out"/>
    </vehicle>

    <vehicle id="flow_5_phase1_S_straight.13" type="moto" depart="173.00" departLane="1" departPos="81.4827" departSpeed="4.293" speedFactor="1.2148" arrival="205.00">
        <route edges="S_in N_out"/>
    </vehicle>

    <vehicle id="flow_7_phase1_S_right.5" type="truck" depart="163.00" departLane="1" departPos="113.0073" departSpeed="13.1713" speedFactor="1.0532" arrival="209.00">
        <route edges="N_in S_out"/>
    </vehicle>

    <vehicle id="flow_1_phase1_N_straight.12" type="truck" depart="163.00" departLane="1" departPos="41.7947" departSpeed="11.9263" speedFactor="0.9615" arrival="210.00">
        <route edges="N_in S_out"/>
    </vehicle>

    <vehicle id="flow_3_phase1_N_right.5" type="moto" depart="172.00" departLane="0" departPos="68.0447" departSpeed="6.5545" speedFactor="0.9059" arrival="210.00">
        <route edges="N_in W_out"/>
    </vehicle>

    <vehicle id="flow_1_phase1_N_straight.14" type="car" depart="190.00" departLane="1" departPos="144.3484" departSpeed="1.6114" speedFactor="0.9718" arrival="212.00">
        <route edges="N_in S_out"/>
    </vehicle>

    <vehicle id="flow_2_phase1_N_left.5" type="car" depart="164.00" departLane="0" departPos="52.0012" departSpeed="1.8423" speedFactor="0.8868" arrival="213.00">
        <route edges="N_in E_out"/>
    </vehicle>

    <vehicle id="flow_1_phase1_N_straight.13" type="truck" depart="177.00" departLane="0" departPos="98.0837" departSpeed="8.3608" speedFactor="0.9465" arrival="213.00">
        <route edges="N_in S_out"/>
    </vehicle>

    <vehicle id="flow_13_phase1_W_straight.14" type="moto" depart="188.00" departLane="0" departPos="108.1078" departSpeed="2.3424" speedFactor="1.1523" arrival="219.00">
        <route edges="W_in E_out"/>
    </vehicle>

    <vehicle id="flow_9_phase1_E_straight.14" type="moto" depart="181.00" departLane="0" departPos="102.4343" departSpeed="0.0612" speedFactor="0.8543" arrival="221.00">
        <route edges="E_in W_out"/>
    </vehicle>

    <vehicle id="flow_6_phase1_S_left.5" type="bus" depart="168.00" departLane="0" departPos="158.7036" departSpeed="2.7669" speedFactor="0.9819" arrival="222.00">
        <route edges="S_in W_out"/>
    </vehicle>

    <vehicle id="flow_15_phase1_W_right.6" type="moto" depart="198.00" departLane="0" departPos="103.1972" departSpeed="7.8157" speedFactor="1.0747" arrival="222.00">
        <route edges="W_in S_out"/>
    </vehicle>

    <vehicle id="flow_11_phase1_E_right.6" type="car" depart="196.00" departLane="0" departPos="142.3358" departSpeed="9.2163" speedFactor="0.9838" arrival="224.00">
        <route edges="W_in E_out"/>
    </vehicle>

    <vehicle id="flow_12_phase1_E_uturn.3" type="car" depart="198.00" departLane="0" departPos="81.0341" departSpeed="5.2851" speedFactor="0.8963" arrival="229.00">
        <route edges="E_in E_out"/>
    </vehicle>

    <vehicle id="flow_7_phase1_S_right.6" type="car" depart="196.00" departLane="1" departPos="180.2387" departSpeed="10.9555" speedFactor="1.1275" arrival="230.00">
        <route edges="N_in S_out"/>
    </vehicle>

    <vehicle id="flow_5_phase1_S_straight.14" type="car" depart="186.00" departLane="1" departPos="62.3987" departSpeed="8.1942" speedFactor="0.8047" arrival="235.00">
        <route edges="S_in N_out"/>
    </vehicle>

    <vehicle id="flow_3_phase1_N_right.6" type="truck" depart="206.00" departLane="1" departPos="106.5316" departSpeed="11.5816" speedFactor="0.9035" arrival="235.00">
        <route edges="N_in W_out"/>
    </vehicle>

    <vehicle id="flow_1_phase1_N_straight.16" type="moto" depart="217.00" departLane="0" departPos="153.1849" departSpeed="3.4841" speedFactor="1.0821" arrival="236.00">
        <route edges="N_in S_out"/>
    </vehicle>

    <vehicle id="flow_5_phase1_S_straight.15" type="bus" depart="199.00" departLane="0" departPos="49.1239" departSpeed="1.1124" speedFactor="0.9700" arrival="237.00">
        <route edges="S_in N_out"/>
    </vehicle>

    <vehicle id="flow_2_phase1_N_left.6" type="moto" depart="197.00" departLane="1" departPos="149.4259" departSpeed="2.448" speedFactor="0.8416" arrival="241.00">
        <route edges="N_in E_out"/>
    </vehicle>

    <vehicle id="flow_4_phase1_N_uturn.3" type="car" depart="199.00" departLane="1" departPos="105.322" departSpeed="5.6521" speedFactor="0.9559" arrival="241.00">
        <route edges="N_in N_out"/>
    </vehicle>

    <vehicle id="flow_13_phase1_W_straight.15" type="car" depart="202.00" departLane="0" departPos="73.7109" departSpeed="13.6308" speedFactor="1.0262" arrival="244.00">
        <route edges="W_in E_out"/>
    </vehicle>

    <vehicle id="flow_8_phase1_S_uturn.3" type="container" depart="199.00" departLane="1" departPos="177.2083" departSpeed="2.3877" speedFactor="0.9628" arrival="247.00">
        <route edges="S_in S_out"/>
    </vehicle>
