<?xml version="1.0" encoding="UTF-8"?>

<!-- generated on 2025-12-09 00:21:29 by Eclipse SUMO sumo Version 1.18.0
<configuration xmlns:xsi="http://www.w3.org/2001/XMLSchema-instance" xsi:noNamespaceSchemaLocation="http://sumo.dlr.de/xsd/sumoConfiguration.xsd">

    <input>
        <net-file value="/workspace/nets/120p4k/net.net.xml"/>
        <route-files value="/workspace/nets/120p4k/route_temp_45_135297552906752_15523305.rou.xml"/>
    </input>

    <output>
        <summary-output value="results/summary_ep_3.xml"/>
        <tripinfo-output value="results/tripinfo_ep_3.xml"/>
        <vehroute-output value="results/vehroute_ep_3.xml"/>
    </output>

    <time>
        <begin value="0"/>
    </time>

    <report>
        <verbose value="true"/>
        <no-step-log value="true"/>
    </report>

    <traci_server>
        <remote-port value="50025"/>
    </traci_server>

    <gui_only>
        <gui-settings-file value="/workspace/nets/120p4k/gui-settings.xml"/>
        <quit-on-end value="true"/>
    </gui_only>

</configuration>
-->

<tripinfos xmlns:xsi="http://www.w3.org/2001/XMLSchema-instance" xsi:noNamespaceSchemaLocation="http://sumo.dlr.de/xsd/tripinfo_file.xsd">
    <tripinfo id="flow_3_increasing_0_N_right.0" depart="0.00" departLane="N_in_0" departPos="103.38" departSpeed="3.81" departDelay="0.00" arrival="24.00" arrivalLane="W_out_0" arrivalPos="189.60" arrivalSpeed="14.24" duration="24.00" routeLength="284.85" waitingTime="0.00" waitingCount="0" stopTime="0.00" timeLoss="4.64" rerouteNo="0" devices="vehroute_flow_3_increasing_0_N_right.0 tripinfo_flow_3_increasing_0_N_right.0" vType="moto" speedFactor="1.11" vaporized=""/>
    <tripinfo id="flow_8_increasing_0_S_uturn.0" depart="0.00" departLane="S_in_0" departPos="120.11" departSpeed="4.48" departDelay="0.00" arrival="24.00" arrivalLane="S_out_1" arrivalPos="189.60" arrivalSpeed="13.41" duration="24.00" routeLength="263.76" waitingTime="0.00" waitingCount="0" stopTime="0.00" timeLoss="4.90" rerouteNo="0" devices="vehroute_flow_8_increasing_0_S_uturn.0 tripinfo_flow_8_increasing_0_S_uturn.0" vType="moto" speedFactor="1.05" vaporized=""/>
    <tripinfo id="flow_5_increasing_0_S_straight.0" depart="0.00" departLane="S_in_1" departPos="107.37" departSpeed="7.21" departDelay="0.00" arrival="25.00" arrivalLane="N_out_1" arrivalPos="189.60" arrivalSpeed="15.67" duration="25.00" routeLength="292.63" waitingTime="0.00" waitingCount="0" stopTime="0.00" timeLoss="6.12" rerouteNo="0" devices="vehroute_flow_5_increasing_0_S_straight.0 tripinfo_flow_5_increasing_0_S_straight.0" vType="moto" speedFactor="1.15" vaporized=""/>
    <tripinfo id="flow_6_increasing_0_S_left.0" depart="0.00" departLane="S_in_1" departPos="166.01" departSpeed="0.74" departDelay="0.00" arrival="25.00" arrivalLane="W_out_1" arrivalPos="189.60" arrivalSpeed="11.57" duration="25.00" routeLength="232.54" waitingTime="0.00" waitingCount="0" stopTime="0.00" timeLoss="4.35" rerouteNo="0" devices="vehroute_flow_6_increasing_0_S_left.0 tripinfo_flow_6_increasing_0_S_left.0" vType="moto" speedFactor="0.88" vaporized=""/>
    <tripinfo id="flow_2_increasing_0_N_left.0" depart="0.00" departLane="N_in_1" departPos="8.27" departSpeed="8.33" departDelay="0.00" arrival="32.00" arrivalLane="E_out_1" arrivalPos="189.60" arrivalSpeed="14.04" duration="32.00" routeLength="390.28" waitingTime="0.00" waitingCount="0" stopTime="0.00" timeLoss="2.82" rerouteNo="0" devices="vehroute_flow_2_increasing_0_N_left.0 tripinfo_flow_2_increasing_0_N_left.0" vType="moto" speedFactor="1.02" vaporized=""/>
    <tripinfo id="flow_4_increasing_0_N_uturn.0" depart="0.00" departLane="N_in_1" departPos="127.60" departSpeed="0.08" departDelay="0.00" arrival="32.00" arrivalLane="N_out_1" arrivalPos="189.60" arrivalSpeed="12.27" duration="32.00" routeLength="256.27" waitingTime="1.00" waitingCount="1" stopTime="0.00" timeLoss="9.82" rerouteNo="0" devices="vehroute_flow_4_increasing_0_N_uturn.0 tripinfo_flow_4_increasing_0_N_uturn.0" vType="moto" speedFactor="0.91" vaporized=""/>
    <tripinfo id="flow_10_increasing_0_E_left.0" depart="0.00" departLane="E_in_0" departPos="44.88" departSpeed="8.19" departDelay="0.00" arrival="35.00" arrivalLane="S_out_1" arrivalPos="189.60" arrivalSpeed="14.41" duration="35.00" routeLength="353.67" waitingTime="3.00" waitingCount="1" stopTime="0.00" timeLoss="10.81" rerouteNo="0" devices="vehroute_flow_10_increasing_0_E_left.0 tripinfo_flow_10_increasing_0_E_left.0" vType="car" speedFactor="1.08" vaporized=""/>
    <tripinfo id="flow_16_increasing_0_W_uturn.0" depart="0.00" departLane="W_in_0" departPos="135.67" departSpeed="9.64" departDelay="0.00" arrival="36.00" arrivalLane="W_out_1" arrivalPos="189.60" arrivalSpeed="14.32" duration="36.00" routeLength="248.20" waitingTime="11.00" waitingCount="1" stopTime="0.00" timeLoss="17.04" rerouteNo="0" devices="vehroute_flow_16_increasing_0_W_uturn.0 tripinfo_flow_16_increasing_0_W_uturn.0" vType="moto" speedFactor="1.04" vaporized=""/>
    <tripinfo id="flow_9_increasing_0_E_straight.0" depart="0.00" departLane="E_in_0" departPos="168.29" departSpeed="10.73" departDelay="0.00" arrival="37.00" arrivalLane="W_out_0" arrivalPos="189.60" arrivalSpeed="12.33" duration="37.00" routeLength="231.71" waitingTime="13.00" waitingCount="1" stopTime="0.00" timeLoss="18.63" rerouteNo="0" devices="vehroute_flow_9_increasing_0_E_straight.0 tripinfo_flow_9_increasing_0_E_straight.0" vType="car" speedFactor="0.94" vaporized=""/>
    <tripinfo id="flow_14_increasing_0_W_left.0" depart="0.00" departLane="W_in_1" departPos="42.31" departSpeed="3.71" departDelay="0.00" arrival="38.00" arrivalLane="N_out_1" arrivalPos="189.60" arrivalSpeed="13.91" duration="38.00" routeLength="356.24" waitingTime="3.00" waitingCount="1" stopTime="0.00" timeLoss="11.70" rerouteNo="0" devices="vehroute_flow_14_increasing_0_W_left.0 tripinfo_flow_14_increasing_0_W_left.0" vType="moto" speedFactor="1.01" vaporized=""/>
    <tripinfo id="flow_12_increasing_0_E_uturn.0" depart="0.00" departLane="E_in_0" departPos="5.65" departSpeed="13.76" departDelay="0.00" arrival="39.00" arrivalLane="E_out_1" arrivalPos="189.60" arrivalSpeed="13.58" duration="39.00" routeLength="378.22" waitingTime="3.00" waitingCount="1" stopTime="0.00" timeLoss="10.73" rerouteNo="0" devices="vehroute_flow_12_increasing_0_E_uturn.0 tripinfo_flow_12_increasing_0_E_uturn.0" vType="moto" speedFactor="1.03" vaporized=""/>
    <tripinfo id="flow_15_increasing_0_W_right.0" depart="0.00" departLane="W_in_1" departPos="153.90" departSpeed="6.73" departDelay="0.00" arrival="39.00" arrivalLane="S_out_0" arrivalPos="189.60" arrivalSpeed="10.73" duration="39.00" routeLength="234.33" waitingTime="10.00" waitingCount="1" stopTime="0.00" timeLoss="17.76" rerouteNo="0" devices="vehroute_flow_15_increasing_0_W_right.0 tripinfo_flow_15_increasing_0_W_right.0" vType="moto" speedFactor="0.85" vaporized=""/>
    <tripinfo id="flow_11_increasing_0_E_right.0" depart="0.00" departLane="E_in_1" departPos="144.95" departSpeed="4.02" departDelay="0.00" arrival="41.00" arrivalLane="N_out_0" arrivalPos="189.60" arrivalSpeed="13.27" duration="41.00" routeLength="243.28" waitingTime="9.00" waitingCount="1" stopTime="0.00" timeLoss="21.94" rerouteNo="0" devices="vehroute_flow_11_increasing_0_E_right.0 tripinfo_flow_11_increasing_0_E_right.0" vType="bus" speedFactor="0.96" vaporized=""/>
    <tripinfo id="flow_13_increasing_0_W_straight.0" depart="0.00" departLane="E_in_0" departPos="77.99" departSpeed="3.97" departDelay="0.00" arrival="47.00" arrivalLane="N_out_0" arrivalPos="189.60" arrivalSpeed="11.71" duration="47.00" routeLength="310.24" waitingTime="6.00" waitingCount="1" stopTime="0.00" timeLoss="20.02" rerouteNo="0" devices="vehroute_flow_13_increasing_0_W_straight.0 tripinfo_flow_13_increasing_0_W_straight.0" vType="bus" speedFactor="0.86" vaporized=""/>
    <tripinfo id="flow_7_increasing_0_S_right.0" depart="0.00" departLane="S_in_0" departPos="8.76" departSpeed="8.47" departDelay="0.00" arrival="54.00" arrivalLane="E_out_0" arrivalPos="189.60" arrivalSpeed="11.68" duration="54.00" routeLength="379.47" waitingTime="13.00" waitingCount="1" stopTime="0.00" timeLoss="22.11" rerouteNo="0" devices="vehroute_flow_7_increasing_0_S_right.0 tripinfo_flow_7_increasing_0_S_right.0" vType="bus" speedFactor="0.89" vaporized=""/>
    <tripinfo id="flow_1_increasing_0_N_straight.0" depart="0.00" departLane="N_in_0" departPos="8.62" departSpeed="8.51" departDelay="0.00" arrival="55.00" arrivalLane="S_out_0" arrivalPos="189.60" arrivalSpeed="11.68" duration="55.00" routeLength="391.38" waitingTime="11.00" waitingCount="1" stopTime="0.00" timeLoss="21.94" rerouteNo="0" devices="vehroute_flow_1_increasing_0_N_straight.0 tripinfo_flow_1_increasing_0_N_straight.0" vType="truck" speedFactor="0.86" vaporized=""/>
    <tripinfo id="flow_9_increasing_0_E_straight.1" depart="49.00" departLane="E_in_1" departPos="177.29" departSpeed="11.07" departDelay="0.92" arrival="64.00" arrivalLane="W_out_1" arrivalPos="189.60" arrivalSpeed="15.85" duration="15.00" routeLength="222.71" waitingTime="0.00" waitingCount="0" stopTime="0.00" timeLoss="0.68" rerouteNo="0" devices="vehroute_flow_9_increasing_0_E_straight.1 tripinfo_flow_9_increasing_0_E_straight.1" vType="moto" speedFactor="1.16" vaporized=""/>
    <tripinfo id="flow_13_increasing_0_W_straight.1" depart="51.00" departLane="E_in_1" departPos="181.05" departSpeed="2.69" departDelay="0.50" arrival="67.00" arrivalLane="N_out_0" arrivalPos="189.60" arrivalSpeed="15.05" duration="16.00" routeLength="207.18" waitingTime="0.00" waitingCount="0" stopTime="0.00" timeLoss="2.60" rerouteNo="0" devices="vehroute_flow_13_increasing_0_W_straight.1 tripinfo_flow_13_increasing_0_W_straight.1" vType="moto" speedFactor="1.19" vaporized=""/>
    <tripinfo id="flow_1_increasing_0_N_straight.1" depart="53.00" departLane="N_in_1" departPos="28.79" departSpeed="10.22" departDelay="0.64" arrival="84.00" arrivalLane="S_out_0" arrivalPos="189.60" arrivalSpeed="14.69" duration="31.00" routeLength="371.21" waitingTime="0.00" waitingCount="0" stopTime="0.00" timeLoss="6.98" rerouteNo="0" devices="vehroute_flow_1_increasing_0_N_straight.1 tripinfo_flow_1_increasing_0_N_straight.1" vType="moto" speedFactor="1.15" vaporized=""/>
    <tripinfo id="flow_5_increasing_0_S_straight.1" depart="50.00" departLane="S_in_0" departPos="93.39" departSpeed="3.73" departDelay="0.25" arrival="87.00" arrivalLane="N_out_0" arrivalPos="189.60" arrivalSpeed="12.05" duration="37.00" routeLength="306.61" waitingTime="4.00" waitingCount="1" stopTime="0.00" timeLoss="11.36" rerouteNo="0" devices="vehroute_flow_5_increasing_0_S_straight.1 tripinfo_flow_5_increasing_0_S_straight.1" vType="moto" speedFactor="0.87" vaporized=""/>
    <tripinfo id="flow_5_increasing_0_S_straight.2" depart="100.00" departLane="S_in_0" departPos="33.93" departSpeed="0.90" departDelay="0.50" arrival="132.00" arrivalLane="N_out_0" arrivalPos="189.60" arrivalSpeed="12.25" duration="32.00" routeLength="366.07" waitingTime="0.00" waitingCount="0" stopTime="0.00" timeLoss="3.95" rerouteNo="0" devices="vehroute_flow_5_increasing_0_S_straight.2 tripinfo_flow_5_increasing_0_S_straight.2" vType="moto" speedFactor="0.96" vaporized=""/>
    <tripinfo id="flow_1_increasing_0_N_straight.2" depart="105.00" departLane="N_in_1" departPos="39.28" departSpeed="7.32" departDelay="0.29" arrival="135.00" arrivalLane="S_out_0" arrivalPos="189.60" arrivalSpeed="11.96" duration="30.00" routeLength="360.72" waitingTime="0.00" waitingCount="0" stopTime="0.00" timeLoss="1.77" rerouteNo="0" devices="vehroute_flow_1_increasing_0_N_straight.2 tripinfo_flow_1_increasing_0_N_straight.2" vType="moto" speedFactor="0.93" vaporized=""/>
    <tripinfo id="flow_9_increasing_0_E_straight.2" depart="97.00" departLane="E_in_1" departPos="103.67" departSpeed="3.85" departDelay="0.85" arrival="145.00" arrivalLane="W_out_0" arrivalPos="189.60" arrivalSpeed="13.10" duration="48.00" routeLength="296.33" waitingTime="17.00" waitingCount="1" stopTime="0.00" timeLoss="25.77" rerouteNo="0" devices="vehroute_flow_9_increasing_0_E_straight.2 tripinfo_flow_9_increasing_0_E_straight.2" vType="moto" speedFactor="0.99" vaporized=""/>
    <tripinfo id="flow_15_increasing_0_W_right.1" depart="123.00" departLane="W_in_0" departPos="80.24" departSpeed="9.78" departDelay="0.45" arrival="148.00" arrivalLane="S_out_0" arrivalPos="189.60" arrivalSpeed="13.43" duration="25.00" routeLength="307.99" waitingTime="0.00" waitingCount="0" stopTime="0.00" timeLoss="2.61" rerouteNo="0" devices="vehroute_flow_15_increasing_0_W_right.1 tripinfo_flow_15_increasing_0_W_right.1" vType="moto" speedFactor="1.04" vaporized=""/>
    <tripinfo id="flow_13_increasing_0_W_straight.2" depart="102.00" departLane="E_in_1" departPos="64.28" departSpeed="4.21" departDelay="0.99" arrival="149.00" arrivalLane="N_out_0" arrivalPos="189.60" arrivalSpeed="13.28" duration="47.00" routeLength="323.95" waitingTime="7.00" waitingCount="1" stopTime="0.00" timeLoss="21.40" rerouteNo="0" devices="vehroute_flow_13_increasing_0_W_straight.2 tripinfo_flow_13_increasing_0_W_straight.2" vType="truck" speedFactor="0.97" vaporized=""/>
    <tripinfo id="flow_11_increasing_0_E_right.1" depart="127.00" departLane="E_in_0" departPos="166.00" departSpeed="1.28" departDelay="0.10" arrival="151.00" arrivalLane="N_out_1" arrivalPos="189.60" arrivalSpeed="11.91" duration="24.00" routeLength="222.23" waitingTime="0.00" waitingCount="0" stopTime="0.00" timeLoss="4.87" rerouteNo="0" devices="vehroute_flow_11_increasing_0_E_right.1 tripinfo_flow_11_increasing_0_E_right.1" vType="moto" speedFactor="0.88" vaporized=""/>
    <tripinfo id="flow_14_increasing_0_W_left.1" depart="125.00" departLane="W_in_1" departPos="79.10" departSpeed="8.50" departDelay="0.62" arrival="152.00" arrivalLane="N_out_1" arrivalPos="189.60" arrivalSpeed="13.73" duration="27.00" routeLength="319.45" waitingTime="0.00" waitingCount="0" stopTime="0.00" timeLoss="3.95" rerouteNo="0" devices="vehroute_flow_14_increasing_0_W_left.1 tripinfo_flow_14_increasing_0_W_left.1" vType="moto" speedFactor="1.05" vaporized=""/>
    <tripinfo id="flow_2_increasing_0_N_left.1" depart="122.00" departLane="N_in_0" departPos="15.17" departSpeed="0.73" departDelay="0.05" arrival="154.00" arrivalLane="E_out_1" arrivalPos="189.60" arrivalSpeed="15.06" duration="32.00" routeLength="383.38" waitingTime="0.00" waitingCount="0" stopTime="0.00" timeLoss="6.78" rerouteNo="0" devices="vehroute_flow_2_increasing_0_N_left.1 tripinfo_flow_2_increasing_0_N_left.1" vType="moto" speedFactor="1.12" vaporized=""/>
    <tripinfo id="flow_6_increasing_0_S_left.1" depart="125.00" departLane="S_in_1" departPos="97.23" departSpeed="5.84" departDelay="0.62" arrival="156.00" arrivalLane="W_out_1" arrivalPos="189.60" arrivalSpeed="14.53" duration="31.00" routeLength="301.32" waitingTime="3.00" waitingCount="1" stopTime="0.00" timeLoss="9.87" rerouteNo="0" devices="vehroute_flow_6_increasing_0_S_left.1 tripinfo_flow_6_increasing_0_S_left.1" vType="moto" speedFactor="1.08" vaporized=""/>
    <tripinfo id="flow_3_increasing_0_N_right.1" depart="131.00" departLane="N_in_0" departPos="93.41" departSpeed="11.76" departDelay="0.79" arrival="160.00" arrivalLane="W_out_0" arrivalPos="189.60" arrivalSpeed="12.42" duration="29.00" routeLength="294.82" waitingTime="0.00" waitingCount="0" stopTime="0.00" timeLoss="4.68" rerouteNo="0" devices="vehroute_flow_3_increasing_0_N_right.1 tripinfo_flow_3_increasing_0_N_right.1" vType="container" speedFactor="0.91" vaporized=""/>
    <tripinfo id="flow_7_increasing_0_S_right.1" depart="122.00" departLane="S_in_0" departPos="54.99" departSpeed="3.84" departDelay="0.05" arrival="162.00" arrivalLane="E_out_0" arrivalPos="189.60" arrivalSpeed="10.61" duration="40.00" routeLength="333.24" waitingTime="0.00" waitingCount="0" stopTime="0.00" timeLoss="8.10" rerouteNo="0" devices="vehroute_flow_7_increasing_0_S_right.1 tripinfo_flow_7_increasing_0_S_right.1" vType="container" speedFactor="0.78" vaporized=""/>
    <tripinfo id="flow_9_increasing_0_E_straight.3" depart="145.00" departLane="E_in_0" departPos="86.42" departSpeed="8.41" departDelay="0.77" arrival="173.00" arrivalLane="W_out_0" arrivalPos="189.60" arrivalSpeed="11.12" duration="28.00" routeLength="313.58" waitingTime="0.00" waitingCount="0" stopTime="0.00" timeLoss="1.29" rerouteNo="0" devices="vehroute_flow_9_increasing_0_E_straight.3 tripinfo_flow_9_increasing_0_E_straight.3" vType="truck" speedFactor="0.85" vaporized=""/>
    <tripinfo id="flow_10_increasing_0_E_left.1" depart="127.00" departLane="E_in_0" departPos="4.52" departSpeed="10.46" departDelay="0.10" arrival="175.00" arrivalLane="S_out_0" arrivalPos="189.60" arrivalSpeed="9.99" duration="48.00" routeLength="394.03" waitingTime="3.00" waitingCount="1" stopTime="0.00" timeLoss="10.08" rerouteNo="0" devices="vehroute_flow_10_increasing_0_E_left.1 tripinfo_flow_10_increasing_0_E_left.1" vType="car" speedFactor="0.77" vaporized=""/>
    <tripinfo id="flow_13_increasing_0_W_straight.3" depart="152.00" departLane="E_in_0" departPos="65.01" departSpeed="6.58" departDelay="0.49" arrival="176.00" arrivalLane="N_out_0" arrivalPos="189.60" arrivalSpeed="15.46" duration="24.00" routeLength="323.22" waitingTime="0.00" waitingCount="0" stopTime="0.00" timeLoss="3.24" rerouteNo="0" devices="vehroute_flow_13_increasing_0_W_straight.3 tripinfo_flow_13_increasing_0_W_straight.3" vType="moto" speedFactor="1.20" vaporized=""/>
    <tripinfo id="flow_5_increasing_0_S_straight.3" depart="150.00" departLane="S_in_0" departPos="184.19" departSpeed="4.95" departDelay="0.75" arrival="193.00" arrivalLane="N_out_0" arrivalPos="189.60" arrivalSpeed="13.99" duration="43.00" routeLength="215.81" waitingTime="22.00" waitingCount="1" stopTime="0.00" timeLoss="27.84" rerouteNo="0" devices="vehroute_flow_5_increasing_0_S_straight.3 tripinfo_flow_5_increasing_0_S_straight.3" vType="moto" speedFactor="1.08" vaporized=""/>
    <tripinfo id="flow_1_increasing_0_N_straight.3" depart="158.00" departLane="N_in_1" departPos="88.42" departSpeed="1.49" departDelay="0.93" arrival="193.00" arrivalLane="S_out_0" arrivalPos="189.60" arrivalSpeed="13.72" duration="35.00" routeLength="311.58" waitingTime="3.00" waitingCount="1" stopTime="0.00" timeLoss="12.95" rerouteNo="0" devices="vehroute_flow_1_increasing_0_N_straight.3 tripinfo_flow_1_increasing_0_N_straight.3" vType="moto" speedFactor="1.06" vaporized=""/>
    <tripinfo id="flow_9_increasing_0_E_straight.4" depart="193.00" departLane="E_in_1" departPos="53.32" departSpeed="10.34" departDelay="0.69" arrival="220.00" arrivalLane="W_out_0" arrivalPos="189.60" arrivalSpeed="13.07" duration="27.00" routeLength="346.68" waitingTime="0.00" waitingCount="0" stopTime="0.00" timeLoss="0.82" rerouteNo="0" devices="vehroute_flow_9_increasing_0_E_straight.4 tripinfo_flow_9_increasing_0_E_straight.4" vType="bus" speedFactor="0.95" vaporized=""/>
    <tripinfo id="flow_5_increasing_0_S_straight.4" depart="200.00" departLane="S_in_0" departPos="135.24" departSpeed="1.68" departDelay="1.00" arrival="230.00" arrivalLane="N_out_0" arrivalPos="189.60" arrivalSpeed="13.19" duration="30.00" routeLength="264.76" waitingTime="0.00" waitingCount="0" stopTime="0.00" timeLoss="9.42" rerouteNo="0" devices="vehroute_flow_5_increasing_0_S_straight.4 tripinfo_flow_5_increasing_0_S_straight.4" vType="container" speedFactor="0.97" vaporized=""/>
    <tripinfo id="flow_1_increasing_0_N_straight.4" depart="210.00" departLane="N_in_1" departPos="74.07" departSpeed="0.57" departDelay="0.58" arrival="239.00" arrivalLane="S_out_0" arrivalPos="189.60" arrivalSpeed="12.25" duration="29.00" routeLength="325.93" waitingTime="0.00" waitingCount="0" stopTime="0.00" timeLoss="3.90" rerouteNo="0" devices="vehroute_flow_1_increasing_0_N_straight.4 tripinfo_flow_1_increasing_0_N_straight.4" vType="car" speedFactor="0.96" vaporized=""/>
    <tripinfo id="flow_13_increasing_0_W_straight.4" depart="203.00" departLane="E_in_0" departPos="70.46" departSpeed="10.65" departDelay="0.98" arrival="256.00" arrivalLane="N_out_0" arrivalPos="189.60" arrivalSpeed="11.89" duration="53.00" routeLength="317.77" waitingTime="18.00" waitingCount="1" stopTime="0.00" timeLoss="25.89" rerouteNo="0" devices="vehroute_flow_13_increasing_0_W_straight.4 tripinfo_flow_13_increasing_0_W_straight.4" vType="truck" speedFactor="0.87" vaporized=""/>
    <tripinfo id="flow_4_increasing_0_N_uturn.1" depart="240.00" departLane="N_in_1" departPos="160.30" departSpeed="13.98" departDelay="0.77" arrival="265.00" arrivalLane="N_out_1" arrivalPos="189.60" arrivalSpeed="13.60" duration="25.00" routeLength="223.57" waitingTime="0.00" waitingCount="0" stopTime="0.00" timeLoss="7.81" rerouteNo="0" devices="vehroute_flow_4_increasing_0_N_uturn.1 tripinfo_flow_4_increasing_0_N_uturn.1" vType="moto" speedFactor="1.03" vaporized=""/>
    <tripinfo id="flow_5_increasing_0_S_straight.5" depart="249.00" departLane="S_in_0" departPos="171.28" departSpeed="11.56" departDelay="0.25" arrival="268.00" arrivalLane="N_out_0" arrivalPos="189.60" arrivalSpeed="12.51" duration="19.00" routeLength="228.72" waitingTime="0.00" waitingCount="0" stopTime="0.00" timeLoss="0.80" rerouteNo="0" devices="vehroute_flow_5_increasing_0_S_straight.5 tripinfo_flow_5_increasing_0_S_straight.5" vType="moto" speedFactor="0.94" vaporized=""/>
    <tripinfo id="flow_6_increasing_0_S_left.2" depart="249.00" departLane="S_in_0" departPos="151.29" departSpeed="4.93" departDelay="0.24" arrival="270.00" arrivalLane="W_out_1" arrivalPos="189.60" arrivalSpeed="13.97" duration="21.00" routeLength="247.26" waitingTime="0.00" waitingCount="0" stopTime="0.00" timeLoss="3.15" rerouteNo="0" devices="vehroute_flow_6_increasing_0_S_left.2 tripinfo_flow_6_increasing_0_S_left.2" vType="moto" speedFactor="1.03" vaporized=""/>
    <tripinfo id="flow_2_increasing_0_N_left.2" depart="244.00" departLane="N_in_1" departPos="129.09" departSpeed="4.74" departDelay="0.10" arrival="274.00" arrivalLane="E_out_1" arrivalPos="189.60" arrivalSpeed="11.86" duration="30.00" routeLength="269.46" waitingTime="0.00" waitingCount="0" stopTime="0.00" timeLoss="7.66" rerouteNo="0" devices="vehroute_flow_2_increasing_0_N_left.2 tripinfo_flow_2_increasing_0_N_left.2" vType="container" speedFactor="0.90" vaporized=""/>
    <tripinfo id="flow_16_increasing_0_W_uturn.1" depart="243.00" departLane="W_in_1" departPos="111.69" departSpeed="6.85" departDelay="0.28" arrival="277.00" arrivalLane="W_out_1" arrivalPos="189.60" arrivalSpeed="14.93" duration="34.00" routeLength="272.18" waitingTime="7.00" waitingCount="1" stopTime="0.00" timeLoss="15.30" rerouteNo="0" devices="vehroute_flow_16_increasing_0_W_uturn.1 tripinfo_flow_16_increasing_0_W_uturn.1" vType="moto" speedFactor="1.14" vaporized=""/>
    <tripinfo id="flow_9_increasing_0_E_straight.5" depart="241.00" departLane="E_in_1" departPos="65.33" departSpeed="12.53" departDelay="0.62" arrival="278.00" arrivalLane="W_out_0" arrivalPos="189.60" arrivalSpeed="13.75" duration="37.00" routeLength="334.67" waitingTime="6.00" waitingCount="1" stopTime="0.00" timeLoss="12.61" rerouteNo="0" devices="vehroute_flow_9_increasing_0_E_straight.5 tripinfo_flow_9_increasing_0_E_straight.5" vType="moto" speedFactor="1.00" vaporized=""/>
    <tripinfo id="flow_15_increasing_0_W_right.2" depart="246.00" departLane="W_in_0" departPos="155.68" departSpeed="8.48" departDelay="0.90" arrival="278.00" arrivalLane="S_out_0" arrivalPos="189.60" arrivalSpeed="12.56" duration="32.00" routeLength="232.55" waitingTime="9.00" waitingCount="1" stopTime="0.00" timeLoss="13.61" rerouteNo="0" devices="vehroute_flow_15_increasing_0_W_right.2 tripinfo_flow_15_increasing_0_W_right.2" vType="moto" speedFactor="0.95" vaporized=""/>
    <tripinfo id="flow_10_increasing_0_E_left.2" depart="254.00" departLane="E_in_0" departPos="78.09" departSpeed="14.42" departDelay="0.19" arrival="279.00" arrivalLane="S_out_1" arrivalPos="189.60" arrivalSpeed="14.65" duration="25.00" routeLength="320.46" waitingTime="0.00" waitingCount="0" stopTime="0.00" timeLoss="3.55" rerouteNo="0" devices="vehroute_flow_10_increasing_0_E_left.2 tripinfo_flow_10_increasing_0_E_left.2" vType="moto" speedFactor="1.14" vaporized=""/>
    <tripinfo id="flow_11_increasing_0_E_right.2" depart="254.00" departLane="E_in_1" departPos="155.35" departSpeed="12.29" departDelay="0.19" arrival="279.00" arrivalLane="N_out_0" arrivalPos="189.60" arrivalSpeed="13.84" duration="25.00" routeLength="232.88" waitingTime="1.00" waitingCount="1" stopTime="0.00" timeLoss="7.53" rerouteNo="0" devices="vehroute_flow_11_increasing_0_E_right.2 tripinfo_flow_11_increasing_0_E_right.2" vType="moto" speedFactor="1.04" vaporized=""/>
    <tripinfo id="flow_13_increasing_0_W_straight.5" depart="253.00" departLane="E_in_0" departPos="2.21" departSpeed="13.62" departDelay="0.48" arrival="283.00" arrivalLane="N_out_0" arrivalPos="189.60" arrivalSpeed="13.87" duration="30.00" routeLength="386.02" waitingTime="0.00" waitingCount="0" stopTime="0.00" timeLoss="2.72" rerouteNo="0" devices="vehroute_flow_13_increasing_0_W_straight.5 tripinfo_flow_13_increasing_0_W_straight.5" vType="moto" speedFactor="1.07" vaporized=""/>
    <tripinfo id="flow_12_increasing_0_E_uturn.1" depart="247.00" departLane="E_in_1" departPos="2.77" departSpeed="6.78" departDelay="0.70" arrival="285.00" arrivalLane="E_out_1" arrivalPos="189.60" arrivalSpeed="11.79" duration="38.00" routeLength="381.10" waitingTime="0.00" waitingCount="0" stopTime="0.00" timeLoss="5.43" rerouteNo="0" devices="vehroute_flow_12_increasing_0_E_uturn.1 tripinfo_flow_12_increasing_0_E_uturn.1" vType="moto" speedFactor="0.89" vaporized=""/>
    <tripinfo id="flow_14_increasing_0_W_left.2" depart="249.00" departLane="W_in_0" departPos="0.16" departSpeed="4.37" departDelay="0.24" arrival="286.00" arrivalLane="N_out_1" arrivalPos="189.60" arrivalSpeed="12.35" duration="37.00" routeLength="398.39" waitingTime="0.00" waitingCount="0" stopTime="0.00" timeLoss="4.77" rerouteNo="0" devices="vehroute_flow_14_increasing_0_W_left.2 tripinfo_flow_14_increasing_0_W_left.2" vType="car" speedFactor="0.93" vaporized=""/>
    <tripinfo id="flow_1_increasing_0_N_straight.5" depart="262.00" departLane="N_in_0" departPos="87.76" departSpeed="12.03" departDelay="0.22" arrival="290.00" arrivalLane="S_out_1" arrivalPos="189.60" arrivalSpeed="14.77" duration="28.00" routeLength="312.24" waitingTime="0.00" waitingCount="0" stopTime="0.00" timeLoss="7.57" rerouteNo="0" devices="vehroute_flow_1_increasing_0_N_straight.5 tripinfo_flow_1_increasing_0_N_straight.5" vType="moto" speedFactor="1.10" vaporized=""/>
    <tripinfo id="flow_7_increasing_0_S_right.2" depart="244.00" departLane="S_in_1" departPos="19.51" departSpeed="7.87" departDelay="0.10" arrival="291.00" arrivalLane="E_out_0" arrivalPos="189.60" arrivalSpeed="12.90" duration="47.00" routeLength="368.72" waitingTime="12.00" waitingCount="1" stopTime="0.00" timeLoss="19.11" rerouteNo="0" devices="vehroute_flow_7_increasing_0_S_right.2 tripinfo_flow_7_increasing_0_S_right.2" vType="car" speedFactor="0.99" vaporized=""/>
    <tripinfo id="flow_3_increasing_0_N_right.2" depart="261.00" departLane="N_in_0" departPos="92.42" departSpeed="12.50" departDelay="0.58" arrival="292.00" arrivalLane="W_out_0" arrivalPos="189.60" arrivalSpeed="11.79" duration="31.00" routeLength="295.81" waitingTime="1.00" waitingCount="1" stopTime="0.00" timeLoss="6.19" rerouteNo="0" devices="vehroute_flow_3_increasing_0_N_right.2 tripinfo_flow_3_increasing_0_N_right.2" vType="moto" speedFactor="0.90" vaporized=""/>
    <tripinfo id="flow_8_increasing_0_S_uturn.1" depart="264.00" departLane="S_in_1" departPos="39.34" departSpeed="4.15" departDelay="0.84" arrival="299.00" arrivalLane="S_out_1" arrivalPos="189.60" arrivalSpeed="12.13" duration="35.00" routeLength="344.53" waitingTime="0.00" waitingCount="0" stopTime="0.00" timeLoss="5.65" rerouteNo="0" devices="vehroute_flow_8_increasing_0_S_uturn.1 tripinfo_flow_8_increasing_0_S_uturn.1" vType="car" speedFactor="0.90" vaporized=""/>
    <tripinfo id="flow_9_increasing_0_E_straight.6" depart="289.00" departLane="E_in_0" departPos="61.32" departSpeed="6.33" departDelay="0.54" arrival="315.00" arrivalLane="W_out_0" arrivalPos="189.60" arrivalSpeed="13.41" duration="26.00" routeLength="338.68" waitingTime="0.00" waitingCount="0" stopTime="0.00" timeLoss="1.94" rerouteNo="0" devices="vehroute_flow_9_increasing_0_E_straight.6 tripinfo_flow_9_increasing_0_E_straight.6" vType="moto" speedFactor="1.02" vaporized=""/>
    <tripinfo id="flow_32_increasing_300_W_uturn.0" depart="300.00" departLane="W_in_0" departPos="178.62" departSpeed="7.74" departDelay="0.00" arrival="318.00" arrivalLane="W_out_1" arrivalPos="189.60" arrivalSpeed="15.85" duration="18.00" routeLength="205.25" waitingTime="0.00" waitingCount="0" stopTime="0.00" timeLoss="4.34" rerouteNo="0" devices="vehroute_flow_32_increasing_300_W_uturn.0 tripinfo_flow_32_increasing_300_W_uturn.0" vType="moto" speedFactor="1.30" vaporized=""/>
    <tripinfo id="flow_23_increasing_300_S_right.0" depart="300.00" departLane="S_in_1" departPos="107.80" departSpeed="14.25" departDelay="0.00" arrival="325.00" arrivalLane="E_out_0" arrivalPos="189.60" arrivalSpeed="14.31" duration="25.00" routeLength="280.43" waitingTime="1.00" waitingCount="1" stopTime="0.00" timeLoss="6.13" rerouteNo="0" devices="vehroute_flow_23_increasing_300_S_right.0 tripinfo_flow_23_increasing_300_S_right.0" vType="moto" speedFactor="1.12" vaporized=""/>