<?xml version="1.0" encoding="UTF-8"?>

<!-- generated on 2025-12-09 00:24:13 by Eclipse SUMO sumo Version 1.18.0
<configuration xmlns:xsi="http://www.w3.org/2001/XMLSchema-instance" xsi:noNamespaceSchemaLocation="http://sumo.dlr.de/xsd/sumoConfiguration.xsd">

    <input>
        <net-file value="/workspace/nets/120p4k/net.net.xml"/>
        <route-files value="/workspace/nets/120p4k/route_temp_45_135297552906752_15523305.rou.xml"/>
    </input>

    <output>
        <summary-output value="results/summary_ep_6.xml"/>
        <tripinfo-output value="results/tripinfo_ep_6.xml"/>
        <vehroute-output value="results/vehroute_ep_6.xml"/>
    </output>

    <time>
        <begin value="0"/>
    </time>

    <report>
        <verbose value="true"/>
        <no-step-log value="true"/>
    </report>

    <traci_server>
        <remote-port value="36383"/>
    </traci_server>

    <gui_only>
        <gui-settings-file value="/workspace/nets/120p4k/gui-settings.xml"/>
        <quit-on-end value="true"/>
    </gui_only>

</configuration>
-->

<tripinfos xmlns:xsi="http://www.w3.org/2001/XMLSchema-instance" xsi:noNamespaceSchemaLocation="http://sumo.dlr.de/xsd/tripinfo_file.xsd">
    <tripinfo id="flow_3_increasing_0_N_right.0" depart="0.00" departLane="N_in_0" departPos="103.38" departSpeed="3.81" departDelay="0.00" arrival="24.00" arrivalLane="W_out_0" arrivalPos="189.60" arrivalSpeed="15.30" duration="24.00" routeLength="284.85" waitingTime="0.00" waitingCount="0" stopTime="0.00" timeLoss="4.59" rerouteNo="0" devices="vehroute_flow_3_increasing_0_N_right.0 tripinfo_flow_3_increasing_0_N_right.0" vType="moto" speedFactor="1.11" vaporized=""/>
    <tripinfo id="flow_8_increasing_0_S_uturn.0" depart="0.00" departLane="S_in_0" departPos="120.11" departSpeed="4.48" departDelay="0.00" arrival="24.00" arrivalLane="S_out_1" arrivalPos="189.60" arrivalSpeed="13.35" duration="24.00" routeLength="263.76" waitingTime="0.00" waitingCount="0" stopTime="0.00" timeLoss="4.90" rerouteNo="0" devices="vehroute_flow_8_increasing_0_S_uturn.0 tripinfo_flow_8_increasing_0_S_uturn.0" vType="moto" speedFactor="1.05" vaporized=""/>
    <tripinfo id="flow_5_increasing_0_S_straight.0" depart="0.00" departLane="S_in_1" departPos="107.37" departSpeed="7.21" departDelay="0.00" arrival="25.00" arrivalLane="N_out_1" arrivalPos="189.60" arrivalSpeed="15.89" duration="25.00" routeLength="292.63" waitingTime="0.00" waitingCount="0" stopTime="0.00" timeLoss="6.23" rerouteNo="0" devices="vehroute_flow_5_increasing_0_S_straight.0 tripinfo_flow_5_increasing_0_S_straight.0" vType="moto" speedFactor="1.15" vaporized=""/>
    <tripinfo id="flow_6_increasing_0_S_left.0" depart="0.00" departLane="S_in_1" departPos="166.01" departSpeed="0.74" departDelay="0.00" arrival="25.00" arrivalLane="W_out_1" arrivalPos="189.60" arrivalSpeed="11.57" duration="25.00" routeLength="232.54" waitingTime="0.00" waitingCount="0" stopTime="0.00" timeLoss="4.36" rerouteNo="0" devices="vehroute_flow_6_increasing_0_S_left.0 tripinfo_flow_6_increasing_0_S_left.0" vType="moto" speedFactor="0.88" vaporized=""/>
    <tripinfo id="flow_2_increasing_0_N_left.0" depart="0.00" departLane="N_in_1" departPos="8.27" departSpeed="8.33" departDelay="0.00" arrival="31.00" arrivalLane="E_out_1" arrivalPos="189.60" arrivalSpeed="13.94" duration="31.00" routeLength="390.28" waitingTime="0.00" waitingCount="0" stopTime="0.00" timeLoss="2.58" rerouteNo="0" devices="vehroute_flow_2_increasing_0_N_left.0 tripinfo_flow_2_increasing_0_N_left.0" vType="moto" speedFactor="1.02" vaporized=""/>
    <tripinfo id="flow_9_increasing_0_E_straight.0" depart="0.00" departLane="E_in_0" departPos="168.29" departSpeed="10.73" departDelay="0.00" arrival="37.00" arrivalLane="W_out_0" arrivalPos="189.60" arrivalSpeed="12.69" duration="37.00" routeLength="231.71" waitingTime="12.00" waitingCount="1" stopTime="0.00" timeLoss="18.88" rerouteNo="0" devices="vehroute_flow_9_increasing_0_E_straight.0 tripinfo_flow_9_increasing_0_E_straight.0" vType="car" speedFactor="0.94" vaporized=""/>
    <tripinfo id="flow_16_increasing_0_W_uturn.0" depart="0.00" departLane="W_in_0" departPos="126.68" departSpeed="11.71" departDelay="0.00" arrival="38.00" arrivalLane="W_out_1" arrivalPos="189.60" arrivalSpeed="14.29" duration="38.00" routeLength="257.19" waitingTime="11.00" waitingCount="1" stopTime="0.00" timeLoss="18.42" rerouteNo="0" devices="vehroute_flow_16_increasing_0_W_uturn.0 tripinfo_flow_16_increasing_0_W_uturn.0" vType="moto" speedFactor="1.04" vaporized=""/>
    <tripinfo id="flow_15_increasing_0_W_right.0" depart="0.00" departLane="W_in_0" departPos="108.38" departSpeed="2.63" departDelay="0.00" arrival="39.00" arrivalLane="S_out_0" arrivalPos="189.60" arrivalSpeed="10.73" duration="39.00" routeLength="279.85" waitingTime="6.00" waitingCount="1" stopTime="0.00" timeLoss="13.86" rerouteNo="0" devices="vehroute_flow_15_increasing_0_W_right.0 tripinfo_flow_15_increasing_0_W_right.0" vType="moto" speedFactor="0.85" vaporized=""/>
    <tripinfo id="flow_14_increasing_0_W_left.0" depart="0.00" departLane="W_in_1" departPos="182.88" departSpeed="5.61" departDelay="0.00" arrival="40.00" arrivalLane="N_out_1" arrivalPos="189.60" arrivalSpeed="13.96" duration="40.00" routeLength="215.67" waitingTime="16.00" waitingCount="2" stopTime="0.00" timeLoss="23.20" rerouteNo="0" devices="vehroute_flow_14_increasing_0_W_left.0 tripinfo_flow_14_increasing_0_W_left.0" vType="moto" speedFactor="1.01" vaporized=""/>
    <tripinfo id="flow_11_increasing_0_E_right.0" depart="0.00" departLane="E_in_1" departPos="144.95" departSpeed="4.02" departDelay="0.00" arrival="41.00" arrivalLane="N_out_0" arrivalPos="189.60" arrivalSpeed="13.03" duration="41.00" routeLength="243.28" waitingTime="11.00" waitingCount="1" stopTime="0.00" timeLoss="21.88" rerouteNo="0" devices="vehroute_flow_11_increasing_0_E_right.0 tripinfo_flow_11_increasing_0_E_right.0" vType="bus" speedFactor="0.96" vaporized=""/>
    <tripinfo id="flow_13_increasing_0_W_straight.0" depart="0.00" departLane="W_in_0" departPos="24.53" departSpeed="3.97" departDelay="0.00" arrival="42.00" arrivalLane="E_out_0" arrivalPos="189.60" arrivalSpeed="11.94" duration="42.00" routeLength="375.47" waitingTime="0.00" waitingCount="0" stopTime="0.00" timeLoss="10.51" rerouteNo="0" devices="vehroute_flow_13_increasing_0_W_straight.0 tripinfo_flow_13_increasing_0_W_straight.0" vType="bus" speedFactor="0.86" vaporized=""/>
    <tripinfo id="flow_4_increasing_0_N_uturn.0" depart="0.00" departLane="W_in_1" departPos="127.60" departSpeed="0.08" departDelay="0.00" arrival="43.00" arrivalLane="W_out_1" arrivalPos="189.60" arrivalSpeed="11.36" duration="43.00" routeLength="256.27" waitingTime="9.00" waitingCount="1" stopTime="0.00" timeLoss="20.82" rerouteNo="0" devices="vehroute_flow_4_increasing_0_N_uturn.0 tripinfo_flow_4_increasing_0_N_uturn.0" vType="moto" speedFactor="0.91" vaporized=""/>
    <tripinfo id="flow_10_increasing_0_E_left.0" depart="0.00" departLane="E_in_0" departPos="44.88" departSpeed="8.19" departDelay="0.00" arrival="43.00" arrivalLane="S_out_1" arrivalPos="189.60" arrivalSpeed="14.14" duration="43.00" routeLength="353.67" waitingTime="7.00" waitingCount="2" stopTime="0.00" timeLoss="18.20" rerouteNo="0" devices="vehroute_flow_10_increasing_0_E_left.0 tripinfo_flow_10_increasing_0_E_left.0" vType="car" speedFactor="1.08" vaporized=""/>
    <tripinfo id="flow_12_increasing_0_E_uturn.0" depart="0.00" departLane="E_in_0" departPos="5.65" departSpeed="13.76" departDelay="0.00" arrival="44.00" arrivalLane="E_out_1" arrivalPos="189.60" arrivalSpeed="14.27" duration="44.00" routeLength="378.22" waitingTime="7.00" waitingCount="2" stopTime="0.00" timeLoss="16.85" rerouteNo="0" devices="vehroute_flow_12_increasing_0_E_uturn.0 tripinfo_flow_12_increasing_0_E_uturn.0" vType="moto" speedFactor="1.03" vaporized=""/>
    <tripinfo id="flow_7_increasing_0_S_right.0" depart="0.00" departLane="S_in_0" departPos="8.76" departSpeed="8.47" departDelay="0.00" arrival="53.00" arrivalLane="E_out_0" arrivalPos="189.60" arrivalSpeed="11.96" duration="53.00" routeLength="379.47" waitingTime="13.00" waitingCount="1" stopTime="0.00" timeLoss="21.65" rerouteNo="0" devices="vehroute_flow_7_increasing_0_S_right.0 tripinfo_flow_7_increasing_0_S_right.0" vType="bus" speedFactor="0.89" vaporized=""/>
    <tripinfo id="flow_1_increasing_0_N_straight.0" depart="0.00" departLane="N_in_0" departPos="8.62" departSpeed="8.51" departDelay="0.00" arrival="55.00" arrivalLane="S_out_0" arrivalPos="189.60" arrivalSpeed="11.68" duration="55.00" routeLength="391.38" waitingTime="11.00" waitingCount="1" stopTime="0.00" timeLoss="21.94" rerouteNo="0" devices="vehroute_flow_1_increasing_0_N_straight.0 tripinfo_flow_1_increasing_0_N_straight.0" vType="truck" speedFactor="0.86" vaporized=""/>
    <tripinfo id="flow_9_increasing_0_E_straight.1" depart="49.00" departLane="E_in_0" departPos="131.13" departSpeed="9.54" departDelay="0.92" arrival="67.00" arrivalLane="W_out_0" arrivalPos="189.60" arrivalSpeed="15.79" duration="18.00" routeLength="268.87" waitingTime="0.00" waitingCount="0" stopTime="0.00" timeLoss="1.05" rerouteNo="0" devices="vehroute_flow_9_increasing_0_E_straight.1 tripinfo_flow_9_increasing_0_E_straight.1" vType="moto" speedFactor="1.16" vaporized=""/>
    <tripinfo id="flow_1_increasing_0_N_straight.1" depart="53.00" departLane="N_in_1" departPos="121.65" departSpeed="2.92" departDelay="0.64" arrival="74.00" arrivalLane="S_out_1" arrivalPos="189.60" arrivalSpeed="15.85" duration="21.00" routeLength="278.35" waitingTime="0.00" waitingCount="0" stopTime="0.00" timeLoss="2.76" rerouteNo="0" devices="vehroute_flow_1_increasing_0_N_straight.1 tripinfo_flow_1_increasing_0_N_straight.1" vType="moto" speedFactor="1.15" vaporized=""/>
    <tripinfo id="flow_5_increasing_0_S_straight.1" depart="50.00" departLane="S_in_1" departPos="58.36" departSpeed="11.64" departDelay="0.25" arrival="80.00" arrivalLane="N_out_0" arrivalPos="189.60" arrivalSpeed="11.81" duration="30.00" routeLength="341.64" waitingTime="0.00" waitingCount="0" stopTime="0.00" timeLoss="1.28" rerouteNo="0" devices="vehroute_flow_5_increasing_0_S_straight.1 tripinfo_flow_5_increasing_0_S_straight.1" vType="moto" speedFactor="0.87" vaporized=""/>
    <tripinfo id="flow_13_increasing_0_W_straight.1" depart="51.00" departLane="W_in_1" departPos="31.93" departSpeed="9.28" departDelay="0.50" arrival="87.00" arrivalLane="E_out_0" arrivalPos="189.60" arrivalSpeed="14.77" duration="36.00" routeLength="368.07" waitingTime="5.00" waitingCount="1" stopTime="0.00" timeLoss="12.35" rerouteNo="0" devices="vehroute_flow_13_increasing_0_W_straight.1 tripinfo_flow_13_increasing_0_W_straight.1" vType="moto" speedFactor="1.19" vaporized=""/>
    <tripinfo id="flow_5_increasing_0_S_straight.2" depart="100.00" departLane="S_in_1" departPos="12.70" departSpeed="12.41" departDelay="0.50" arrival="131.00" arrivalLane="N_out_0" arrivalPos="189.60" arrivalSpeed="12.41" duration="31.00" routeLength="387.30" waitingTime="0.00" waitingCount="0" stopTime="0.00" timeLoss="1.25" rerouteNo="0" devices="vehroute_flow_5_increasing_0_S_straight.2 tripinfo_flow_5_increasing_0_S_straight.2" vType="moto" speedFactor="0.96" vaporized=""/>
    <tripinfo id="flow_1_increasing_0_N_straight.2" depart="105.00" departLane="N_in_1" departPos="107.53" departSpeed="1.11" departDelay="0.29" arrival="132.00" arrivalLane="S_out_0" arrivalPos="189.60" arrivalSpeed="12.27" duration="27.00" routeLength="292.47" waitingTime="0.00" waitingCount="0" stopTime="0.00" timeLoss="3.57" rerouteNo="0" devices="vehroute_flow_1_increasing_0_N_straight.2 tripinfo_flow_1_increasing_0_N_straight.2" vType="moto" speedFactor="0.93" vaporized=""/>
    <tripinfo id="flow_9_increasing_0_E_straight.2" depart="97.00" departLane="E_in_1" departPos="52.87" departSpeed="0.38" departDelay="0.85" arrival="140.00" arrivalLane="W_out_0" arrivalPos="189.60" arrivalSpeed="13.77" duration="43.00" routeLength="347.13" waitingTime="9.00" waitingCount="1" stopTime="0.00" timeLoss="17.84" rerouteNo="0" devices="vehroute_flow_9_increasing_0_E_straight.2 tripinfo_flow_9_increasing_0_E_straight.2" vType="moto" speedFactor="0.99" vaporized=""/>
    <tripinfo id="flow_13_increasing_0_W_straight.2" depart="102.00" departLane="W_in_1" departPos="59.51" departSpeed="13.32" departDelay="0.99" arrival="144.00" arrivalLane="E_out_0" arrivalPos="189.60" arrivalSpeed="12.75" duration="42.00" routeLength="340.49" waitingTime="7.00" waitingCount="1" stopTime="0.00" timeLoss="16.21" rerouteNo="0" devices="vehroute_flow_13_increasing_0_W_straight.2 tripinfo_flow_13_increasing_0_W_straight.2" vType="truck" speedFactor="0.97" vaporized=""/>
    <tripinfo id="flow_15_increasing_0_W_right.1" depart="123.00" departLane="W_in_1" departPos="128.68" departSpeed="3.06" departDelay="0.45" arrival="147.00" arrivalLane="S_out_0" arrivalPos="189.60" arrivalSpeed="13.22" duration="24.00" routeLength="259.55" waitingTime="0.00" waitingCount="0" stopTime="0.00" timeLoss="4.71" rerouteNo="0" devices="vehroute_flow_15_increasing_0_W_right.1 tripinfo_flow_15_increasing_0_W_right.1" vType="moto" speedFactor="1.04" vaporized=""/>
    <tripinfo id="flow_14_increasing_0_W_left.1" depart="125.00" departLane="W_in_1" departPos="110.92" departSpeed="11.99" departDelay="0.62" arrival="148.00" arrivalLane="N_out_1" arrivalPos="189.60" arrivalSpeed="14.43" duration="23.00" routeLength="287.63" waitingTime="0.00" waitingCount="0" stopTime="0.00" timeLoss="2.21" rerouteNo="0" devices="vehroute_flow_14_increasing_0_W_left.1 tripinfo_flow_14_increasing_0_W_left.1" vType="moto" speedFactor="1.05" vaporized=""/>
    <tripinfo id="flow_10_increasing_0_E_left.1" depart="127.00" departLane="E_in_1" departPos="185.21" departSpeed="3.91" departDelay="0.10" arrival="150.00" arrivalLane="S_out_0" arrivalPos="189.60" arrivalSpeed="10.58" duration="23.00" routeLength="213.34" waitingTime="0.00" waitingCount="0" stopTime="0.00" timeLoss="1.79" rerouteNo="0" devices="vehroute_flow_10_increasing_0_E_left.1 tripinfo_flow_10_increasing_0_E_left.1" vType="car" speedFactor="0.77" vaporized=""/>
    <tripinfo id="flow_6_increasing_0_S_left.1" depart="125.00" departLane="S_in_0" departPos="73.90" departSpeed="8.67" departDelay="0.62" arrival="152.00" arrivalLane="W_out_1" arrivalPos="189.60" arrivalSpeed="14.78" duration="27.00" routeLength="324.65" waitingTime="0.00" waitingCount="0" stopTime="0.00" timeLoss="4.35" rerouteNo="0" devices="vehroute_flow_6_increasing_0_S_left.1 tripinfo_flow_6_increasing_0_S_left.1" vType="moto" speedFactor="1.08" vaporized=""/>
    <tripinfo id="flow_2_increasing_0_N_left.1" depart="122.00" departLane="N_in_0" departPos="8.88" departSpeed="2.82" departDelay="0.05" arrival="153.00" arrivalLane="E_out_1" arrivalPos="189.60" arrivalSpeed="14.95" duration="31.00" routeLength="389.67" waitingTime="0.00" waitingCount="0" stopTime="0.00" timeLoss="5.50" rerouteNo="0" devices="vehroute_flow_2_increasing_0_N_left.1 tripinfo_flow_2_increasing_0_N_left.1" vType="moto" speedFactor="1.12" vaporized=""/>
    <tripinfo id="flow_7_increasing_0_S_right.1" depart="122.00" departLane="S_in_1" departPos="66.71" departSpeed="7.87" departDelay="0.05" arrival="157.00" arrivalLane="E_out_0" arrivalPos="189.60" arrivalSpeed="10.43" duration="35.00" routeLength="321.52" waitingTime="0.00" waitingCount="0" stopTime="0.00" timeLoss="4.92" rerouteNo="0" devices="vehroute_flow_7_increasing_0_S_right.1 tripinfo_flow_7_increasing_0_S_right.1" vType="container" speedFactor="0.78" vaporized=""/>
    <tripinfo id="flow_3_increasing_0_N_right.1" depart="131.00" departLane="N_in_1" departPos="175.36" departSpeed="7.25" departDelay="0.79" arrival="159.00" arrivalLane="W_out_0" arrivalPos="189.60" arrivalSpeed="12.09" duration="28.00" routeLength="212.87" waitingTime="0.00" waitingCount="0" stopTime="0.00" timeLoss="9.80" rerouteNo="0" devices="vehroute_flow_3_increasing_0_N_right.1 tripinfo_flow_3_increasing_0_N_right.1" vType="container" speedFactor="0.91" vaporized=""/>
    <tripinfo id="flow_11_increasing_0_E_right.1" depart="127.00" departLane="E_in_0" departPos="19.85" departSpeed="3.71" departDelay="0.10" arrival="168.00" arrivalLane="N_out_0" arrivalPos="189.60" arrivalSpeed="12.12" duration="41.00" routeLength="368.38" waitingTime="3.00" waitingCount="1" stopTime="0.00" timeLoss="9.53" rerouteNo="0" devices="vehroute_flow_11_increasing_0_E_right.1 tripinfo_flow_11_increasing_0_E_right.1" vType="moto" speedFactor="0.88" vaporized=""/>
    <tripinfo id="flow_9_increasing_0_E_straight.3" depart="145.00" departLane="E_in_0" departPos="134.76" departSpeed="5.03" departDelay="0.77" arrival="170.00" arrivalLane="W_out_0" arrivalPos="189.60" arrivalSpeed="11.20" duration="25.00" routeLength="265.24" waitingTime="0.00" waitingCount="0" stopTime="0.00" timeLoss="2.29" rerouteNo="0" devices="vehroute_flow_9_increasing_0_E_straight.3 tripinfo_flow_9_increasing_0_E_straight.3" vType="truck" speedFactor="0.85" vaporized=""/>
    <tripinfo id="flow_5_increasing_0_S_straight.3" depart="150.00" departLane="S_in_1" departPos="108.76" departSpeed="13.07" departDelay="0.75" arrival="178.00" arrivalLane="N_out_0" arrivalPos="189.60" arrivalSpeed="14.09" duration="28.00" routeLength="291.24" waitingTime="2.00" waitingCount="1" stopTime="0.00" timeLoss="8.34" rerouteNo="0" devices="vehroute_flow_5_increasing_0_S_straight.3 tripinfo_flow_5_increasing_0_S_straight.3" vType="moto" speedFactor="1.08" vaporized=""/>
    <tripinfo id="flow_1_increasing_0_N_straight.3" depart="158.00" departLane="N_in_0" departPos="19.25" departSpeed="10.28" departDelay="0.93" arrival="186.00" arrivalLane="S_out_0" arrivalPos="189.60" arrivalSpeed="14.63" duration="28.00" routeLength="380.75" waitingTime="0.00" waitingCount="0" stopTime="0.00" timeLoss="1.43" rerouteNo="0" devices="vehroute_flow_1_increasing_0_N_straight.3 tripinfo_flow_1_increasing_0_N_straight.3" vType="moto" speedFactor="1.06" vaporized=""/>
    <tripinfo id="flow_13_increasing_0_W_straight.3" depart="152.00" departLane="W_in_1" departPos="77.94" departSpeed="4.74" departDelay="0.49" arrival="191.00" arrivalLane="E_out_0" arrivalPos="189.60" arrivalSpeed="15.97" duration="39.00" routeLength="322.06" waitingTime="9.00" waitingCount="1" stopTime="0.00" timeLoss="18.08" rerouteNo="0" devices="vehroute_flow_13_increasing_0_W_straight.3 tripinfo_flow_13_increasing_0_W_straight.3" vType="moto" speedFactor="1.20" vaporized=""/>
    <tripinfo id="flow_9_increasing_0_E_straight.4" depart="193.00" departLane="E_in_0" departPos="148.08" departSpeed="8.76" departDelay="0.69" arrival="222.00" arrivalLane="W_out_0" arrivalPos="189.60" arrivalSpeed="12.96" duration="29.00" routeLength="251.92" waitingTime="0.00" waitingCount="0" stopTime="0.00" timeLoss="9.91" rerouteNo="0" devices="vehroute_flow_9_increasing_0_E_straight.4 tripinfo_flow_9_increasing_0_E_straight.4" vType="bus" speedFactor="0.95" vaporized=""/>
    <tripinfo id="flow_13_increasing_0_W_straight.4" depart="203.00" departLane="W_in_0" departPos="167.23" departSpeed="1.71" departDelay="0.98" arrival="227.00" arrivalLane="E_out_0" arrivalPos="189.60" arrivalSpeed="11.70" duration="24.00" routeLength="232.77" waitingTime="0.00" waitingCount="0" stopTime="0.00" timeLoss="4.10" rerouteNo="0" devices="vehroute_flow_13_increasing_0_W_straight.4 tripinfo_flow_13_increasing_0_W_straight.4" vType="truck" speedFactor="0.87" vaporized=""/>
    <tripinfo id="flow_5_increasing_0_S_straight.4" depart="200.00" departLane="S_in_1" departPos="23.57" departSpeed="9.61" departDelay="1.00" arrival="230.00" arrivalLane="N_out_0" arrivalPos="189.60" arrivalSpeed="13.22" duration="30.00" routeLength="376.43" waitingTime="0.00" waitingCount="0" stopTime="0.00" timeLoss="1.64" rerouteNo="0" devices="vehroute_flow_5_increasing_0_S_straight.4 tripinfo_flow_5_increasing_0_S_straight.4" vType="container" speedFactor="0.97" vaporized=""/>
    <tripinfo id="flow_1_increasing_0_N_straight.4" depart="210.00" departLane="N_in_0" departPos="8.08" departSpeed="6.42" departDelay="0.58" arrival="257.00" arrivalLane="S_out_0" arrivalPos="189.60" arrivalSpeed="13.31" duration="47.00" routeLength="391.92" waitingTime="11.00" waitingCount="1" stopTime="0.00" timeLoss="17.64" rerouteNo="0" devices="vehroute_flow_1_increasing_0_N_straight.4 tripinfo_flow_1_increasing_0_N_straight.4" vType="car" speedFactor="0.96" vaporized=""/>
    <tripinfo id="flow_4_increasing_0_N_uturn.1" depart="240.00" departLane="W_in_0" departPos="185.47" departSpeed="4.13" departDelay="0.77" arrival="270.00" arrivalLane="W_out_1" arrivalPos="189.60" arrivalSpeed="13.13" duration="30.00" routeLength="198.40" waitingTime="10.00" waitingCount="1" stopTime="0.00" timeLoss="14.44" rerouteNo="0" devices="vehroute_flow_4_increasing_0_N_uturn.1 tripinfo_flow_4_increasing_0_N_uturn.1" vType="moto" speedFactor="1.03" vaporized=""/>
    <tripinfo id="flow_15_increasing_0_W_right.2" depart="246.00" departLane="W_in_0" departPos="121.56" departSpeed="11.33" departDelay="0.90" arrival="270.00" arrivalLane="S_out_0" arrivalPos="189.60" arrivalSpeed="12.38" duration="24.00" routeLength="266.67" waitingTime="0.00" waitingCount="0" stopTime="0.00" timeLoss="2.93" rerouteNo="0" devices="vehroute_flow_15_increasing_0_W_right.2 tripinfo_flow_15_increasing_0_W_right.2" vType="moto" speedFactor="0.95" vaporized=""/>
    <tripinfo id="flow_9_increasing_0_E_straight.5" depart="241.00" departLane="E_in_1" departPos="171.48" departSpeed="2.13" departDelay="0.62" arrival="271.00" arrivalLane="W_out_0" arrivalPos="189.60" arrivalSpeed="13.24" duration="30.00" routeLength="228.52" waitingTime="5.00" waitingCount="1" stopTime="0.00" timeLoss="12.83" rerouteNo="0" devices="vehroute_flow_9_increasing_0_E_straight.5 tripinfo_flow_9_increasing_0_E_straight.5" vType="moto" speedFactor="1.00" vaporized=""/>
    <tripinfo id="flow_16_increasing_0_W_uturn.1" depart="243.00" departLane="W_in_0" departPos="81.69" departSpeed="10.54" departDelay="0.28" arrival="271.00" arrivalLane="W_out_1" arrivalPos="189.60" arrivalSpeed="15.75" duration="28.00" routeLength="302.18" waitingTime="0.00" waitingCount="0" stopTime="0.00" timeLoss="7.44" rerouteNo="0" devices="vehroute_flow_16_increasing_0_W_uturn.1 tripinfo_flow_16_increasing_0_W_uturn.1" vType="moto" speedFactor="1.14" vaporized=""/>
    <tripinfo id="flow_12_increasing_0_E_uturn.1" depart="247.00" departLane="E_in_0" departPos="104.14" departSpeed="11.66" departDelay="0.70" arrival="276.00" arrivalLane="E_out_1" arrivalPos="189.60" arrivalSpeed="11.98" duration="29.00" routeLength="279.73" waitingTime="0.00" waitingCount="0" stopTime="0.00" timeLoss="4.69" rerouteNo="0" devices="vehroute_flow_12_increasing_0_E_uturn.1 tripinfo_flow_12_increasing_0_E_uturn.1" vType="moto" speedFactor="0.89" vaporized=""/>
    <tripinfo id="flow_14_increasing_0_W_left.2" depart="249.00" departLane="W_in_1" departPos="89.17" departSpeed="10.29" departDelay="0.24" arrival="276.00" arrivalLane="N_out_1" arrivalPos="189.60" arrivalSpeed="12.27" duration="27.00" routeLength="309.38" waitingTime="0.00" waitingCount="0" stopTime="0.00" timeLoss="2.15" rerouteNo="0" devices="vehroute_flow_14_increasing_0_W_left.2 tripinfo_flow_14_increasing_0_W_left.2" vType="car" speedFactor="0.93" vaporized=""/>
    <tripinfo id="flow_13_increasing_0_W_straight.5" depart="253.00" departLane="W_in_1" departPos="124.88" departSpeed="0.01" departDelay="0.48" arrival="277.00" arrivalLane="E_out_1" arrivalPos="189.60" arrivalSpeed="13.91" duration="24.00" routeLength="275.12" waitingTime="0.00" waitingCount="0" stopTime="0.00" timeLoss="5.22" rerouteNo="0" devices="vehroute_flow_13_increasing_0_W_straight.5 tripinfo_flow_13_increasing_0_W_straight.5" vType="moto" speedFactor="1.07" vaporized=""/>
    <tripinfo id="flow_7_increasing_0_S_right.2" depart="244.00" departLane="S_in_1" departPos="108.70" departSpeed="8.13" departDelay="0.10" arrival="284.00" arrivalLane="E_out_0" arrivalPos="189.60" arrivalSpeed="13.13" duration="40.00" routeLength="279.53" waitingTime="11.00" waitingCount="1" stopTime="0.00" timeLoss="18.04" rerouteNo="0" devices="vehroute_flow_7_increasing_0_S_right.2 tripinfo_flow_7_increasing_0_S_right.2" vType="car" speedFactor="0.99" vaporized=""/>
    <tripinfo id="flow_5_increasing_0_S_straight.5" depart="249.00" departLane="S_in_1" departPos="168.21" departSpeed="11.63" departDelay="0.25" arrival="284.00" arrivalLane="N_out_0" arrivalPos="189.60" arrivalSpeed="12.79" duration="35.00" routeLength="231.79" waitingTime="11.00" waitingCount="1" stopTime="0.00" timeLoss="16.78" rerouteNo="0" devices="vehroute_flow_5_increasing_0_S_straight.5 tripinfo_flow_5_increasing_0_S_straight.5" vType="moto" speedFactor="0.94" vaporized=""/>
    <tripinfo id="flow_1_increasing_0_N_straight.5" depart="262.00" departLane="N_in_1" departPos="148.65" departSpeed="7.48" departDelay="0.22" arrival="286.00" arrivalLane="S_out_0" arrivalPos="189.60" arrivalSpeed="14.86" duration="24.00" routeLength="251.35" waitingTime="0.00" waitingCount="0" stopTime="0.00" timeLoss="6.87" rerouteNo="0" devices="vehroute_flow_1_increasing_0_N_straight.5 tripinfo_flow_1_increasing_0_N_straight.5" vType="moto" speedFactor="1.10" vaporized=""/>
    <tripinfo id="flow_2_increasing_0_N_left.2" depart="244.00" departLane="N_in_0" departPos="71.94" departSpeed="3.46" departDelay="0.10" arrival="291.00" arrivalLane="E_out_1" arrivalPos="189.60" arrivalSpeed="11.98" duration="47.00" routeLength="326.61" waitingTime="3.00" waitingCount="1" stopTime="0.00" timeLoss="19.87" rerouteNo="0" devices="vehroute_flow_2_increasing_0_N_left.2 tripinfo_flow_2_increasing_0_N_left.2" vType="container" speedFactor="0.90" vaporized=""/>
    <tripinfo id="flow_6_increasing_0_S_left.2" depart="249.00" departLane="S_in_0" departPos="31.76" departSpeed="12.89" departDelay="0.24" arrival="291.00" arrivalLane="W_out_1" arrivalPos="189.60" arrivalSpeed="13.56" duration="42.00" routeLength="366.79" waitingTime="4.00" waitingCount="2" stopTime="0.00" timeLoss="14.84" rerouteNo="0" devices="vehroute_flow_6_increasing_0_S_left.2 tripinfo_flow_6_increasing_0_S_left.2" vType="moto" speedFactor="1.03" vaporized=""/>
    <tripinfo id="flow_3_increasing_0_N_right.2" depart="261.00" departLane="N_in_1" departPos="74.60" departSpeed="10.27" departDelay="0.58" arrival="291.00" arrivalLane="W_out_0" arrivalPos="189.60" arrivalSpeed="11.72" duration="30.00" routeLength="313.63" waitingTime="0.00" waitingCount="0" stopTime="0.00" timeLoss="4.34" rerouteNo="0" devices="vehroute_flow_3_increasing_0_N_right.2 tripinfo_flow_3_increasing_0_N_right.2" vType="moto" speedFactor="0.90" vaporized=""/>
    <tripinfo id="flow_10_increasing_0_E_left.2" depart="254.00" departLane="E_in_1" departPos="92.22" departSpeed="0.19" departDelay="0.19" arrival="294.00" arrivalLane="S_out_1" arrivalPos="189.60" arrivalSpeed="15.70" duration="40.00" routeLength="306.33" waitingTime="11.00" waitingCount="1" stopTime="0.00" timeLoss="20.17" rerouteNo="0" devices="vehroute_flow_10_increasing_0_E_left.2 tripinfo_flow_10_increasing_0_E_left.2" vType="moto" speedFactor="1.14" vaporized=""/>
    <tripinfo id="flow_11_increasing_0_E_right.2" depart="254.00" departLane="E_in_1" departPos="21.68" departSpeed="5.95" departDelay="0.19" arrival="295.00" arrivalLane="N_out_0" arrivalPos="189.60" arrivalSpeed="13.77" duration="41.00" routeLength="366.55" waitingTime="7.00" waitingCount="1" stopTime="0.00" timeLoss="14.43" rerouteNo="0" devices="vehroute_flow_11_increasing_0_E_right.2 tripinfo_flow_11_increasing_0_E_right.2" vType="moto" speedFactor="1.04" vaporized=""/>
    <tripinfo id="flow_8_increasing_0_S_uturn.1" depart="264.00" departLane="S_in_0" departPos="63.10" departSpeed="10.53" departDelay="0.84" arrival="311.00" arrivalLane="S_out_1" arrivalPos="189.60" arrivalSpeed="11.82" duration="47.00" routeLength="320.77" waitingTime="14.00" waitingCount="1" stopTime="0.00" timeLoss="19.43" rerouteNo="0" devices="vehroute_flow_8_increasing_0_S_uturn.1 tripinfo_flow_8_increasing_0_S_uturn.1" vType="car" speedFactor="0.90" vaporized=""/>
    <tripinfo id="flow_32_increasing_300_W_uturn.0" depart="300.00" departLane="W_in_1" departPos="178.62" departSpeed="3.69" departDelay="0.00" arrival="319.00" arrivalLane="W_out_1" arrivalPos="189.60" arrivalSpeed="15.67" duration="19.00" routeLength="205.25" waitingTime="1.00" waitingCount="1" stopTime="0.00" timeLoss="5.81" rerouteNo="0" devices="vehroute_flow_32_increasing_300_W_uturn.0 tripinfo_flow_32_increasing_300_W_uturn.0" vType="moto" speedFactor="1.30" vaporized=""/>
    <tripinfo id="flow_29_increasing_300_W_straight.0" depart="300.00" departLane="W_in_0" departPos="114.62" departSpeed="10.70" departDelay="0.00" arrival="321.00" arrivalLane="E_out_0" arrivalPos="189.60" arrivalSpeed="13.70" duration="21.00" routeLength="285.38" waitingTime="0.00" waitingCount="0" stopTime="0.00" timeLoss="1.21" rerouteNo="0" devices="vehroute_flow_29_increasing_300_W_straight.0 tripinfo_flow_29_increasing_300_W_straight.0" vType="moto" speedFactor="1.04" vaporized=""/>
    <tripinfo id="flow_9_increasing_0_E_straight.6" depart="289.00" departLane="E_in_1" departPos="84.66" departSpeed="2.17" departDelay="0.54" arrival="322.00" arrivalLane="W_out_0" arrivalPos="189.60" arrivalSpeed="14.01" duration="33.00" routeLength="315.34" waitingTime="1.00" waitingCount="1" stopTime="0.00" timeLoss="10.74" rerouteNo="0" devices="vehroute_flow_9_increasing_0_E_straight.6 tripinfo_flow_9_increasing_0_E_straight.6" vType="moto" speedFactor="1.02" vaporized=""/>