<?xml version="1.0" encoding="UTF-8"?>

<!-- generated on 2025-12-09 00:51:04 by Eclipse SUMO sumo Version 1.18.0
<configuration xmlns:xsi="http://www.w3.org/2001/XMLSchema-instance" xsi:noNamespaceSchemaLocation="http://sumo.dlr.de/xsd/sumoConfiguration.xsd">

    <input>
        <net-file value="nets/120p4k/net.net.xml"/>
        <route-files value="nets/120p4k/route_temp_123_136228221793904_64131698.rou.xml"/>
    </input>

    <output>
        <summary-output value="result_ddqn_1.2_0.1/summary_ep_10.xml"/>
        <tripinfo-output value="result_ddqn_1.2_0.1/tripinfo_ep_10.xml"/>
        <vehroute-output value="result_ddqn_1.2_0.1/vehroute_ep_10.xml"/>
    </output>

    <time>
        <begin value="0"/>
    </time>

    <report>
        <verbose value="true"/>
        <no-warnings value="true"/>
        <no-step-log value="true"/>
    </report>

    <traci_server>
        <remote-port value="37331"/>
    </traci_server>

    <gui_only>
        <gui-settings-file value="nets/120p4k/gui-settings.xml"/>
        <quit-on-end value="true"/>
    </gui_only>

</configuration>
-->

<tripinfos xmlns:xsi="http://www.w3.org/2001/XMLSchema-instance" xsi:noNamespaceSchemaLocation="http://sumo.dlr.de/xsd/tripinfo_file.xsd">
    <tripinfo id="flow_14_increasing_0_W_left.0" depart="0.00" departLane="S_in_1" departPos="182.88" departSpeed="5.61" departDelay="0.00" arrival="18.00" arrivalLane="W_out_1" arrivalPos="189.60" arrivalSpeed="12.97" duration="18.00" routeLength="215.67" waitingTime="0.00" waitingCount="0" stopTime="0.00" timeLoss="1.71" rerouteNo="0" devices="vehroute_flow_14_increasing_0_W_left.0 tripinfo_flow_14_increasing_0_W_left.0" vType="moto" speedFactor="1.01" vaporized=""/>
    <tripinfo id="flow_9_increasing_0_E_straight.0" depart="0.00" departLane="N_in_0" departPos="168.29" departSpeed="10.73" departDelay="0.00" arrival="20.00" arrivalLane="W_out_0" arrivalPos="189.60" arrivalSpeed="12.46" duration="20.00" routeLength="219.94" waitingTime="0.00" waitingCount="0" stopTime="0.00" timeLoss="2.52" rerouteNo="0" devices="vehroute_flow_9_increasing_0_E_straight.0 tripinfo_flow_9_increasing_0_E_straight.0" vType="car" speedFactor="0.94" vaporized=""/>
    <tripinfo id="flow_3_increasing_0_N_right.0" depart="0.00" departLane="N_in_0" departPos="103.38" departSpeed="3.81" departDelay="0.00" arrival="24.00" arrivalLane="W_out_0" arrivalPos="189.60" arrivalSpeed="14.73" duration="24.00" routeLength="284.85" waitingTime="0.00" waitingCount="0" stopTime="0.00" timeLoss="4.52" rerouteNo="0" devices="vehroute_flow_3_increasing_0_N_right.0 tripinfo_flow_3_increasing_0_N_right.0" vType="moto" speedFactor="1.11" vaporized=""/>
    <tripinfo id="flow_6_increasing_0_S_left.0" depart="0.00" departLane="S_in_1" departPos="166.01" departSpeed="0.74" departDelay="0.00" arrival="24.00" arrivalLane="W_out_1" arrivalPos="189.60" arrivalSpeed="12.15" duration="24.00" routeLength="232.54" waitingTime="0.00" waitingCount="0" stopTime="0.00" timeLoss="4.02" rerouteNo="0" devices="vehroute_flow_6_increasing_0_S_left.0 tripinfo_flow_6_increasing_0_S_left.0" vType="moto" speedFactor="0.88" vaporized=""/>
    <tripinfo id="flow_8_increasing_0_S_uturn.0" depart="0.00" departLane="S_in_0" departPos="120.11" departSpeed="4.48" departDelay="0.00" arrival="24.00" arrivalLane="S_out_1" arrivalPos="189.60" arrivalSpeed="13.35" duration="24.00" routeLength="263.76" waitingTime="0.00" waitingCount="0" stopTime="0.00" timeLoss="4.88" rerouteNo="0" devices="vehroute_flow_8_increasing_0_S_uturn.0 tripinfo_flow_8_increasing_0_S_uturn.0" vType="moto" speedFactor="1.05" vaporized=""/>
    <tripinfo id="flow_5_increasing_0_S_straight.0" depart="0.00" departLane="S_in_1" departPos="107.37" departSpeed="7.21" departDelay="0.00" arrival="25.00" arrivalLane="N_out_1" arrivalPos="189.60" arrivalSpeed="15.67" duration="25.00" routeLength="292.63" waitingTime="0.00" waitingCount="0" stopTime="0.00" timeLoss="6.00" rerouteNo="0" devices="vehroute_flow_5_increasing_0_S_straight.0 tripinfo_flow_5_increasing_0_S_straight.0" vType="moto" speedFactor="1.15" vaporized=""/>
    <tripinfo id="flow_2_increasing_0_N_left.0" depart="0.00" departLane="N_in_1" departPos="8.27" departSpeed="8.33" departDelay="0.00" arrival="32.00" arrivalLane="E_out_1" arrivalPos="189.60" arrivalSpeed="13.28" duration="32.00" routeLength="390.28" waitingTime="0.00" waitingCount="0" stopTime="0.00" timeLoss="2.82" rerouteNo="0" devices="vehroute_flow_2_increasing_0_N_left.0 tripinfo_flow_2_increasing_0_N_left.0" vType="moto" speedFactor="1.02" vaporized=""/>
    <tripinfo id="flow_4_increasing_0_N_uturn.0" depart="0.00" departLane="N_in_1" departPos="127.60" departSpeed="0.08" departDelay="0.00" arrival="32.00" arrivalLane="N_out_1" arrivalPos="189.60" arrivalSpeed="12.06" duration="32.00" routeLength="256.27" waitingTime="1.00" waitingCount="1" stopTime="0.00" timeLoss="9.79" rerouteNo="0" devices="vehroute_flow_4_increasing_0_N_uturn.0 tripinfo_flow_4_increasing_0_N_uturn.0" vType="moto" speedFactor="0.91" vaporized=""/>
    <tripinfo id="flow_16_increasing_0_W_uturn.0" depart="0.00" departLane="W_in_0" departPos="126.68" departSpeed="11.71" departDelay="0.00" arrival="36.00" arrivalLane="E_out_0" arrivalPos="189.60" arrivalSpeed="14.04" duration="36.00" routeLength="273.32" waitingTime="11.00" waitingCount="1" stopTime="0.00" timeLoss="16.26" rerouteNo="0" devices="vehroute_flow_16_increasing_0_W_uturn.0 tripinfo_flow_16_increasing_0_W_uturn.0" vType="moto" speedFactor="1.04" vaporized=""/>
    <tripinfo id="flow_13_increasing_0_W_straight.0" depart="0.00" departLane="W_in_0" departPos="24.53" departSpeed="3.97" departDelay="0.00" arrival="37.00" arrivalLane="E_out_1" arrivalPos="189.60" arrivalSpeed="11.62" duration="37.00" routeLength="375.47" waitingTime="0.00" waitingCount="0" stopTime="0.00" timeLoss="5.10" rerouteNo="0" devices="vehroute_flow_13_increasing_0_W_straight.0 tripinfo_flow_13_increasing_0_W_straight.0" vType="bus" speedFactor="0.86" vaporized=""/>
    <tripinfo id="flow_10_increasing_0_E_left.0" depart="0.00" departLane="E_in_0" departPos="44.88" departSpeed="8.19" departDelay="0.00" arrival="39.00" arrivalLane="S_out_1" arrivalPos="189.60" arrivalSpeed="14.14" duration="39.00" routeLength="353.67" waitingTime="3.00" waitingCount="1" stopTime="0.00" timeLoss="14.33" rerouteNo="0" devices="vehroute_flow_10_increasing_0_E_left.0 tripinfo_flow_10_increasing_0_E_left.0" vType="car" speedFactor="1.08" vaporized=""/>
    <tripinfo id="flow_11_increasing_0_E_right.0" depart="0.00" departLane="E_in_1" departPos="144.95" departSpeed="4.02" departDelay="0.00" arrival="39.00" arrivalLane="N_out_0" arrivalPos="189.60" arrivalSpeed="13.21" duration="39.00" routeLength="243.28" waitingTime="8.00" waitingCount="1" stopTime="0.00" timeLoss="20.04" rerouteNo="0" devices="vehroute_flow_11_increasing_0_E_right.0 tripinfo_flow_11_increasing_0_E_right.0" vType="bus" speedFactor="0.96" vaporized=""/>
    <tripinfo id="flow_12_increasing_0_E_uturn.0" depart="0.00" departLane="E_in_0" departPos="5.65" departSpeed="13.76" departDelay="0.00" arrival="40.00" arrivalLane="E_out_1" arrivalPos="189.60" arrivalSpeed="13.12" duration="40.00" routeLength="378.22" waitingTime="4.00" waitingCount="2" stopTime="0.00" timeLoss="12.74" rerouteNo="0" devices="vehroute_flow_12_increasing_0_E_uturn.0 tripinfo_flow_12_increasing_0_E_uturn.0" vType="moto" speedFactor="1.03" vaporized=""/>
    <tripinfo id="flow_15_increasing_0_W_right.0" depart="0.00" departLane="W_in_0" departPos="108.38" departSpeed="2.63" departDelay="0.00" arrival="41.00" arrivalLane="S_out_0" arrivalPos="189.60" arrivalSpeed="11.72" duration="41.00" routeLength="279.85" waitingTime="8.00" waitingCount="1" stopTime="0.00" timeLoss="15.43" rerouteNo="0" devices="vehroute_flow_15_increasing_0_W_right.0 tripinfo_flow_15_increasing_0_W_right.0" vType="moto" speedFactor="0.85" vaporized=""/>
    <tripinfo id="flow_7_increasing_0_S_right.0" depart="0.00" departLane="S_in_0" departPos="8.76" departSpeed="8.47" departDelay="0.00" arrival="54.00" arrivalLane="E_out_0" arrivalPos="189.60" arrivalSpeed="11.73" duration="54.00" routeLength="379.47" waitingTime="13.00" waitingCount="1" stopTime="0.00" timeLoss="22.25" rerouteNo="0" devices="vehroute_flow_7_increasing_0_S_right.0 tripinfo_flow_7_increasing_0_S_right.0" vType="bus" speedFactor="0.89" vaporized=""/>
    <tripinfo id="flow_1_increasing_0_N_straight.0" depart="0.00" departLane="N_in_0" departPos="8.62" departSpeed="8.51" departDelay="0.00" arrival="55.00" arrivalLane="S_out_0" arrivalPos="189.60" arrivalSpeed="11.26" duration="55.00" routeLength="391.38" waitingTime="11.00" waitingCount="1" stopTime="0.00" timeLoss="21.72" rerouteNo="0" devices="vehroute_flow_1_increasing_0_N_straight.0 tripinfo_flow_1_increasing_0_N_straight.0" vType="truck" speedFactor="0.86" vaporized=""/>
    <tripinfo id="flow_9_increasing_0_E_straight.1" depart="49.00" departLane="N_in_0" departPos="131.13" departSpeed="9.54" departDelay="0.92" arrival="73.00" arrivalLane="W_out_0" arrivalPos="189.60" arrivalSpeed="15.18" duration="24.00" routeLength="257.10" waitingTime="0.00" waitingCount="0" stopTime="0.00" timeLoss="6.92" rerouteNo="0" devices="vehroute_flow_9_increasing_0_E_straight.1 tripinfo_flow_9_increasing_0_E_straight.1" vType="moto" speedFactor="1.16" vaporized=""/>
    <tripinfo id="flow_1_increasing_0_N_straight.1" depart="53.00" departLane="N_in_1" departPos="121.65" departSpeed="2.92" departDelay="0.64" arrival="74.00" arrivalLane="S_out_1" arrivalPos="189.60" arrivalSpeed="14.99" duration="21.00" routeLength="278.35" waitingTime="0.00" waitingCount="0" stopTime="0.00" timeLoss="3.12" rerouteNo="0" devices="vehroute_flow_1_increasing_0_N_straight.1 tripinfo_flow_1_increasing_0_N_straight.1" vType="moto" speedFactor="1.15" vaporized=""/>
    <tripinfo id="flow_5_increasing_0_S_straight.1" depart="50.00" departLane="S_in_1" departPos="58.36" departSpeed="11.64" departDelay="0.25" arrival="80.00" arrivalLane="N_out_0" arrivalPos="189.60" arrivalSpeed="11.64" duration="30.00" routeLength="341.64" waitingTime="0.00" waitingCount="0" stopTime="0.00" timeLoss="1.16" rerouteNo="0" devices="vehroute_flow_5_increasing_0_S_straight.1 tripinfo_flow_5_increasing_0_S_straight.1" vType="moto" speedFactor="0.87" vaporized=""/>
    <tripinfo id="flow_13_increasing_0_W_straight.1" depart="51.00" departLane="W_in_1" departPos="31.93" departSpeed="9.28" departDelay="0.50" arrival="87.00" arrivalLane="E_out_0" arrivalPos="189.60" arrivalSpeed="14.94" duration="36.00" routeLength="368.07" waitingTime="4.00" waitingCount="1" stopTime="0.00" timeLoss="12.49" rerouteNo="0" devices="vehroute_flow_13_increasing_0_W_straight.1 tripinfo_flow_13_increasing_0_W_straight.1" vType="moto" speedFactor="1.19" vaporized=""/>
    <tripinfo id="flow_9_increasing_0_E_straight.2" depart="97.00" departLane="N_in_1" departPos="52.87" departSpeed="0.38" departDelay="0.85" arrival="129.00" arrivalLane="W_out_0" arrivalPos="189.60" arrivalSpeed="12.86" duration="32.00" routeLength="335.36" waitingTime="0.00" waitingCount="0" stopTime="0.00" timeLoss="5.97" rerouteNo="0" devices="vehroute_flow_9_increasing_0_E_straight.2 tripinfo_flow_9_increasing_0_E_straight.2" vType="moto" speedFactor="0.99" vaporized=""/>
    <tripinfo id="flow_5_increasing_0_S_straight.2" depart="100.00" departLane="S_in_1" departPos="12.70" departSpeed="12.41" departDelay="0.50" arrival="131.00" arrivalLane="N_out_0" arrivalPos="189.60" arrivalSpeed="13.11" duration="31.00" routeLength="387.30" waitingTime="0.00" waitingCount="0" stopTime="0.00" timeLoss="1.49" rerouteNo="0" devices="vehroute_flow_5_increasing_0_S_straight.2 tripinfo_flow_5_increasing_0_S_straight.2" vType="moto" speedFactor="0.96" vaporized=""/>
    <tripinfo id="flow_1_increasing_0_N_straight.2" depart="105.00" departLane="N_in_1" departPos="107.53" departSpeed="1.11" departDelay="0.29" arrival="131.00" arrivalLane="S_out_0" arrivalPos="189.60" arrivalSpeed="12.56" duration="26.00" routeLength="292.47" waitingTime="0.00" waitingCount="0" stopTime="0.00" timeLoss="3.13" rerouteNo="0" devices="vehroute_flow_1_increasing_0_N_straight.2 tripinfo_flow_1_increasing_0_N_straight.2" vType="moto" speedFactor="0.93" vaporized=""/>
    <tripinfo id="flow_13_increasing_0_W_straight.2" depart="102.00" departLane="W_in_1" departPos="59.51" departSpeed="13.32" departDelay="0.99" arrival="144.00" arrivalLane="E_out_0" arrivalPos="189.60" arrivalSpeed="13.31" duration="42.00" routeLength="340.49" waitingTime="6.00" waitingCount="1" stopTime="0.00" timeLoss="16.44" rerouteNo="0" devices="vehroute_flow_13_increasing_0_W_straight.2 tripinfo_flow_13_increasing_0_W_straight.2" vType="truck" speedFactor="0.97" vaporized=""/>
    <tripinfo id="flow_15_increasing_0_W_right.1" depart="123.00" departLane="W_in_1" departPos="128.68" departSpeed="3.06" departDelay="0.45" arrival="146.00" arrivalLane="S_out_0" arrivalPos="189.60" arrivalSpeed="13.14" duration="23.00" routeLength="259.55" waitingTime="0.00" waitingCount="0" stopTime="0.00" timeLoss="3.92" rerouteNo="0" devices="vehroute_flow_15_increasing_0_W_right.1 tripinfo_flow_15_increasing_0_W_right.1" vType="moto" speedFactor="1.04" vaporized=""/>
    <tripinfo id="flow_10_increasing_0_E_left.1" depart="127.00" departLane="E_in_1" departPos="185.21" departSpeed="3.91" departDelay="0.10" arrival="150.00" arrivalLane="S_out_0" arrivalPos="189.60" arrivalSpeed="10.01" duration="23.00" routeLength="213.34" waitingTime="0.00" waitingCount="0" stopTime="0.00" timeLoss="1.96" rerouteNo="0" devices="vehroute_flow_10_increasing_0_E_left.1 tripinfo_flow_10_increasing_0_E_left.1" vType="car" speedFactor="0.77" vaporized=""/>
    <tripinfo id="flow_2_increasing_0_N_left.1" depart="122.00" departLane="N_in_0" departPos="8.88" departSpeed="2.82" departDelay="0.05" arrival="152.00" arrivalLane="E_out_1" arrivalPos="189.60" arrivalSpeed="15.10" duration="30.00" routeLength="389.67" waitingTime="0.00" waitingCount="0" stopTime="0.00" timeLoss="4.33" rerouteNo="0" devices="vehroute_flow_2_increasing_0_N_left.1 tripinfo_flow_2_increasing_0_N_left.1" vType="moto" speedFactor="1.12" vaporized=""/>
    <tripinfo id="flow_14_increasing_0_W_left.1" depart="125.00" departLane="S_in_1" departPos="110.92" departSpeed="11.99" departDelay="0.62" arrival="152.00" arrivalLane="W_out_1" arrivalPos="189.60" arrivalSpeed="13.87" duration="27.00" routeLength="287.63" waitingTime="0.00" waitingCount="0" stopTime="0.00" timeLoss="6.77" rerouteNo="0" devices="vehroute_flow_14_increasing_0_W_left.1 tripinfo_flow_14_increasing_0_W_left.1" vType="moto" speedFactor="1.05" vaporized=""/>
    <tripinfo id="flow_6_increasing_0_S_left.1" depart="125.00" departLane="S_in_0" departPos="73.90" departSpeed="8.24" departDelay="0.62" arrival="154.00" arrivalLane="W_out_1" arrivalPos="189.60" arrivalSpeed="14.67" duration="29.00" routeLength="324.65" waitingTime="0.00" waitingCount="0" stopTime="0.00" timeLoss="6.21" rerouteNo="0" devices="vehroute_flow_6_increasing_0_S_left.1 tripinfo_flow_6_increasing_0_S_left.1" vType="moto" speedFactor="1.08" vaporized=""/>
    <tripinfo id="flow_7_increasing_0_S_right.1" depart="122.00" departLane="S_in_1" departPos="66.71" departSpeed="7.87" departDelay="0.05" arrival="157.00" arrivalLane="E_out_0" arrivalPos="189.60" arrivalSpeed="10.77" duration="35.00" routeLength="321.52" waitingTime="0.00" waitingCount="0" stopTime="0.00" timeLoss="4.70" rerouteNo="0" devices="vehroute_flow_7_increasing_0_S_right.1 tripinfo_flow_7_increasing_0_S_right.1" vType="container" speedFactor="0.78" vaporized=""/>
    <tripinfo id="flow_3_increasing_0_N_right.1" depart="131.00" departLane="N_in_1" departPos="175.36" departSpeed="7.25" departDelay="0.79" arrival="158.00" arrivalLane="W_out_0" arrivalPos="189.60" arrivalSpeed="12.09" duration="27.00" routeLength="212.87" waitingTime="0.00" waitingCount="0" stopTime="0.00" timeLoss="9.36" rerouteNo="0" devices="vehroute_flow_3_increasing_0_N_right.1 tripinfo_flow_3_increasing_0_N_right.1" vType="container" speedFactor="0.91" vaporized=""/>
    <tripinfo id="flow_11_increasing_0_E_right.1" depart="127.00" departLane="E_in_0" departPos="19.85" departSpeed="3.71" departDelay="0.10" arrival="167.00" arrivalLane="N_out_0" arrivalPos="189.60" arrivalSpeed="12.05" duration="40.00" routeLength="368.38" waitingTime="2.00" waitingCount="1" stopTime="0.00" timeLoss="9.12" rerouteNo="0" devices="vehroute_flow_11_increasing_0_E_right.1 tripinfo_flow_11_increasing_0_E_right.1" vType="moto" speedFactor="0.88" vaporized=""/>
    <tripinfo id="flow_5_increasing_0_S_straight.3" depart="150.00" departLane="S_in_1" departPos="108.76" departSpeed="13.07" departDelay="0.75" arrival="178.00" arrivalLane="N_out_0" arrivalPos="189.60" arrivalSpeed="14.79" duration="28.00" routeLength="291.24" waitingTime="1.00" waitingCount="1" stopTime="0.00" timeLoss="8.28" rerouteNo="0" devices="vehroute_flow_5_increasing_0_S_straight.3 tripinfo_flow_5_increasing_0_S_straight.3" vType="moto" speedFactor="1.08" vaporized=""/>
    <tripinfo id="flow_9_increasing_0_E_straight.3" depart="145.00" departLane="N_in_0" departPos="134.76" departSpeed="5.03" departDelay="0.77" arrival="184.00" arrivalLane="W_out_0" arrivalPos="189.60" arrivalSpeed="11.68" duration="39.00" routeLength="253.47" waitingTime="6.00" waitingCount="1" stopTime="0.00" timeLoss="15.71" rerouteNo="0" devices="vehroute_flow_9_increasing_0_E_straight.3 tripinfo_flow_9_increasing_0_E_straight.3" vType="truck" speedFactor="0.85" vaporized=""/>
    <tripinfo id="flow_1_increasing_0_N_straight.3" depart="158.00" departLane="N_in_0" departPos="19.25" departSpeed="10.28" departDelay="0.93" arrival="186.00" arrivalLane="S_out_0" arrivalPos="189.60" arrivalSpeed="13.53" duration="28.00" routeLength="380.75" waitingTime="0.00" waitingCount="0" stopTime="0.00" timeLoss="1.27" rerouteNo="0" devices="vehroute_flow_1_increasing_0_N_straight.3 tripinfo_flow_1_increasing_0_N_straight.3" vType="moto" speedFactor="1.06" vaporized=""/>
    <tripinfo id="flow_13_increasing_0_W_straight.3" depart="152.00" departLane="W_in_1" departPos="77.94" departSpeed="4.74" departDelay="0.49" arrival="191.00" arrivalLane="E_out_0" arrivalPos="189.60" arrivalSpeed="15.11" duration="39.00" routeLength="322.06" waitingTime="10.00" waitingCount="1" stopTime="0.00" timeLoss="18.58" rerouteNo="0" devices="vehroute_flow_13_increasing_0_W_straight.3 tripinfo_flow_13_increasing_0_W_straight.3" vType="moto" speedFactor="1.20" vaporized=""/>
    <tripinfo id="flow_9_increasing_0_E_straight.4" depart="193.00" departLane="N_in_0" departPos="148.08" departSpeed="8.76" departDelay="0.69" arrival="216.00" arrivalLane="W_out_0" arrivalPos="189.60" arrivalSpeed="12.74" duration="23.00" routeLength="240.15" waitingTime="0.00" waitingCount="0" stopTime="0.00" timeLoss="4.15" rerouteNo="0" devices="vehroute_flow_9_increasing_0_E_straight.4 tripinfo_flow_9_increasing_0_E_straight.4" vType="bus" speedFactor="0.95" vaporized=""/>
    <tripinfo id="flow_13_increasing_0_W_straight.4" depart="203.00" departLane="W_in_0" departPos="167.23" departSpeed="1.71" departDelay="0.98" arrival="227.00" arrivalLane="E_out_0" arrivalPos="189.60" arrivalSpeed="11.69" duration="24.00" routeLength="232.77" waitingTime="0.00" waitingCount="0" stopTime="0.00" timeLoss="4.54" rerouteNo="0" devices="vehroute_flow_13_increasing_0_W_straight.4 tripinfo_flow_13_increasing_0_W_straight.4" vType="truck" speedFactor="0.87" vaporized=""/>
    <tripinfo id="flow_5_increasing_0_S_straight.4" depart="200.00" departLane="S_in_1" departPos="23.57" departSpeed="9.61" departDelay="1.00" arrival="230.00" arrivalLane="N_out_0" arrivalPos="189.60" arrivalSpeed="13.37" duration="30.00" routeLength="376.43" waitingTime="0.00" waitingCount="0" stopTime="0.00" timeLoss="1.63" rerouteNo="0" devices="vehroute_flow_5_increasing_0_S_straight.4 tripinfo_flow_5_increasing_0_S_straight.4" vType="container" speedFactor="0.97" vaporized=""/>
    <tripinfo id="flow_1_increasing_0_N_straight.4" depart="210.00" departLane="N_in_0" departPos="8.08" departSpeed="6.42" departDelay="0.58" arrival="258.00" arrivalLane="S_out_0" arrivalPos="189.60" arrivalSpeed="12.88" duration="48.00" routeLength="391.92" waitingTime="9.00" waitingCount="1" stopTime="0.00" timeLoss="17.93" rerouteNo="0" devices="vehroute_flow_1_increasing_0_N_straight.4 tripinfo_flow_1_increasing_0_N_straight.4" vType="car" speedFactor="0.96" vaporized=""/>
    <tripinfo id="flow_4_increasing_0_N_uturn.1" depart="240.00" departLane="N_in_0" departPos="185.47" departSpeed="3.00" departDelay="0.77" arrival="260.00" arrivalLane="N_out_1" arrivalPos="189.60" arrivalSpeed="14.01" duration="20.00" routeLength="198.40" waitingTime="0.00" waitingCount="0" stopTime="0.00" timeLoss="4.08" rerouteNo="0" devices="vehroute_flow_4_increasing_0_N_uturn.1 tripinfo_flow_4_increasing_0_N_uturn.1" vType="moto" speedFactor="1.03" vaporized=""/>
    <tripinfo id="flow_9_increasing_0_E_straight.5" depart="241.00" departLane="N_in_1" departPos="171.48" departSpeed="2.13" departDelay="0.62" arrival="262.00" arrivalLane="W_out_0" arrivalPos="189.60" arrivalSpeed="13.51" duration="21.00" routeLength="216.75" waitingTime="0.00" waitingCount="0" stopTime="0.00" timeLoss="4.00" rerouteNo="0" devices="vehroute_flow_9_increasing_0_E_straight.5 tripinfo_flow_9_increasing_0_E_straight.5" vType="moto" speedFactor="1.00" vaporized=""/>
    <tripinfo id="flow_16_increasing_0_W_uturn.1" depart="243.00" departLane="W_in_0" departPos="81.69" departSpeed="10.54" departDelay="0.28" arrival="267.00" arrivalLane="E_out_0" arrivalPos="189.60" arrivalSpeed="14.70" duration="24.00" routeLength="318.31" waitingTime="0.00" waitingCount="0" stopTime="0.00" timeLoss="3.29" rerouteNo="0" devices="vehroute_flow_16_increasing_0_W_uturn.1 tripinfo_flow_16_increasing_0_W_uturn.1" vType="moto" speedFactor="1.14" vaporized=""/>
    <tripinfo id="flow_15_increasing_0_W_right.2" depart="246.00" departLane="W_in_0" departPos="121.56" departSpeed="11.33" departDelay="0.90" arrival="271.00" arrivalLane="S_out_0" arrivalPos="189.60" arrivalSpeed="13.19" duration="25.00" routeLength="266.67" waitingTime="0.00" waitingCount="0" stopTime="0.00" timeLoss="4.01" rerouteNo="0" devices="vehroute_flow_15_increasing_0_W_right.2 tripinfo_flow_15_increasing_0_W_right.2" vType="moto" speedFactor="0.95" vaporized=""/>
    <tripinfo id="flow_12_increasing_0_E_uturn.1" depart="247.00" departLane="E_in_0" departPos="104.14" departSpeed="11.66" departDelay="0.70" arrival="276.00" arrivalLane="E_out_1" arrivalPos="189.60" arrivalSpeed="11.93" duration="29.00" routeLength="279.73" waitingTime="0.00" waitingCount="0" stopTime="0.00" timeLoss="4.74" rerouteNo="0" devices="vehroute_flow_12_increasing_0_E_uturn.1 tripinfo_flow_12_increasing_0_E_uturn.1" vType="moto" speedFactor="0.89" vaporized=""/>
    <tripinfo id="flow_13_increasing_0_W_straight.5" depart="253.00" departLane="W_in_1" departPos="124.88" departSpeed="0.01" departDelay="0.48" arrival="277.00" arrivalLane="E_out_0" arrivalPos="189.60" arrivalSpeed="14.56" duration="24.00" routeLength="275.12" waitingTime="0.00" waitingCount="0" stopTime="0.00" timeLoss="4.93" rerouteNo="0" devices="vehroute_flow_13_increasing_0_W_straight.5 tripinfo_flow_13_increasing_0_W_straight.5" vType="moto" speedFactor="1.07" vaporized=""/>
    <tripinfo id="flow_10_increasing_0_E_left.2" depart="254.00" departLane="E_in_1" departPos="92.22" departSpeed="0.19" departDelay="0.19" arrival="282.00" arrivalLane="S_out_1" arrivalPos="189.60" arrivalSpeed="15.61" duration="28.00" routeLength="306.33" waitingTime="0.00" waitingCount="0" stopTime="0.00" timeLoss="7.36" rerouteNo="0" devices="vehroute_flow_10_increasing_0_E_left.2 tripinfo_flow_10_increasing_0_E_left.2" vType="moto" speedFactor="1.14" vaporized=""/>
    <tripinfo id="flow_11_increasing_0_E_right.2" depart="254.00" departLane="E_in_1" departPos="21.68" departSpeed="5.95" departDelay="0.19" arrival="285.00" arrivalLane="N_out_0" arrivalPos="189.60" arrivalSpeed="13.97" duration="31.00" routeLength="366.55" waitingTime="0.00" waitingCount="0" stopTime="0.00" timeLoss="3.82" rerouteNo="0" devices="vehroute_flow_11_increasing_0_E_right.2 tripinfo_flow_11_increasing_0_E_right.2" vType="moto" speedFactor="1.04" vaporized=""/>
    <tripinfo id="flow_1_increasing_0_N_straight.5" depart="262.00" departLane="N_in_1" departPos="148.65" departSpeed="7.48" departDelay="0.22" arrival="293.00" arrivalLane="S_out_0" arrivalPos="189.60" arrivalSpeed="15.32" duration="31.00" routeLength="251.35" waitingTime="2.00" waitingCount="1" stopTime="0.00" timeLoss="13.74" rerouteNo="0" devices="vehroute_flow_1_increasing_0_N_straight.5 tripinfo_flow_1_increasing_0_N_straight.5" vType="moto" speedFactor="1.10" vaporized=""/>
    <tripinfo id="flow_7_increasing_0_S_right.2" depart="244.00" departLane="S_in_1" departPos="108.70" departSpeed="8.13" departDelay="0.10" arrival="294.00" arrivalLane="E_out_0" arrivalPos="189.60" arrivalSpeed="12.95" duration="50.00" routeLength="279.53" waitingTime="21.00" waitingCount="1" stopTime="0.00" timeLoss="27.97" rerouteNo="0" devices="vehroute_flow_7_increasing_0_S_right.2 tripinfo_flow_7_increasing_0_S_right.2" vType="car" speedFactor="0.99" vaporized=""/>
    <tripinfo id="flow_5_increasing_0_S_straight.5" depart="249.00" departLane="S_in_1" departPos="168.21" departSpeed="11.63" departDelay="0.25" arrival="294.00" arrivalLane="N_out_0" arrivalPos="189.60" arrivalSpeed="12.32" duration="45.00" routeLength="231.79" waitingTime="21.00" waitingCount="1" stopTime="0.00" timeLoss="26.81" rerouteNo="0" devices="vehroute_flow_5_increasing_0_S_straight.5 tripinfo_flow_5_increasing_0_S_straight.5" vType="moto" speedFactor="0.94" vaporized=""/>
    <tripinfo id="flow_3_increasing_0_N_right.2" depart="261.00" departLane="N_in_1" departPos="74.60" departSpeed="10.27" departDelay="0.58" arrival="296.00" arrivalLane="W_out_0" arrivalPos="189.60" arrivalSpeed="11.70" duration="35.00" routeLength="313.63" waitingTime="2.00" waitingCount="1" stopTime="0.00" timeLoss="8.90" rerouteNo="0" devices="vehroute_flow_3_increasing_0_N_right.2 tripinfo_flow_3_increasing_0_N_right.2" vType="moto" speedFactor="0.90" vaporized=""/>
    <tripinfo id="flow_14_increasing_0_W_left.2" depart="249.00" departLane="S_in_1" departPos="89.17" departSpeed="10.29" departDelay="0.24" arrival="297.00" arrivalLane="W_out_1" arrivalPos="189.60" arrivalSpeed="12.60" duration="48.00" routeLength="309.38" waitingTime="15.00" waitingCount="1" stopTime="0.00" timeLoss="22.40" rerouteNo="0" devices="vehroute_flow_14_increasing_0_W_left.2 tripinfo_flow_14_increasing_0_W_left.2" vType="car" speedFactor="0.93" vaporized=""/>
    <tripinfo id="flow_6_increasing_0_S_left.2" depart="249.00" departLane="S_in_0" departPos="31.76" departSpeed="12.89" departDelay="0.24" arrival="298.00" arrivalLane="W_out_1" arrivalPos="189.60" arrivalSpeed="14.27" duration="49.00" routeLength="366.79" waitingTime="14.00" waitingCount="1" stopTime="0.00" timeLoss="22.11" rerouteNo="0" devices="vehroute_flow_6_increasing_0_S_left.2 tripinfo_flow_6_increasing_0_S_left.2" vType="moto" speedFactor="1.03" vaporized=""/>
    <tripinfo id="flow_2_increasing_0_N_left.2" depart="244.00" departLane="N_in_0" departPos="71.94" departSpeed="3.46" departDelay="0.10" arrival="303.00" arrivalLane="E_out_1" arrivalPos="189.60" arrivalSpeed="11.88" duration="59.00" routeLength="326.61" waitingTime="14.00" waitingCount="1" stopTime="0.00" timeLoss="31.83" rerouteNo="0" devices="vehroute_flow_2_increasing_0_N_left.2 tripinfo_flow_2_increasing_0_N_left.2" vType="container" speedFactor="0.90" vaporized=""/>
    <tripinfo id="flow_8_increasing_0_S_uturn.1" depart="264.00" departLane="S_in_0" departPos="63.10" departSpeed="10.53" departDelay="0.84" arrival="303.00" arrivalLane="S_out_1" arrivalPos="189.60" arrivalSpeed="11.50" duration="39.00" routeLength="320.77" waitingTime="1.00" waitingCount="1" stopTime="0.00" timeLoss="11.75" rerouteNo="0" devices="vehroute_flow_8_increasing_0_S_uturn.1 tripinfo_flow_8_increasing_0_S_uturn.1" vType="car" speedFactor="0.90" vaporized=""/>
    <tripinfo id="flow_9_increasing_0_E_straight.6" depart="289.00" departLane="N_in_1" departPos="84.66" departSpeed="2.17" departDelay="0.54" arrival="317.00" arrivalLane="W_out_0" arrivalPos="189.60" arrivalSpeed="13.10" duration="28.00" routeLength="303.57" waitingTime="0.00" waitingCount="0" stopTime="0.00" timeLoss="6.05" rerouteNo="0" devices="vehroute_flow_9_increasing_0_E_straight.6 tripinfo_flow_9_increasing_0_E_straight.6" vType="moto" speedFactor="1.02" vaporized=""/>
    <tripinfo id="flow_23_increasing_300_S_right.0" depart="300.00" departLane="N_in_0" departPos="174.06" departSpeed="3.42" departDelay="0.00" arrival="319.00" arrivalLane="W_out_0" arrivalPos="189.60" arrivalSpeed="14.93" duration="19.00" routeLength="214.17" waitingTime="0.00" waitingCount="0" stopTime="0.00" timeLoss="3.48" rerouteNo="0" devices="vehroute_flow_23_increasing_300_S_right.0 tripinfo_flow_23_increasing_300_S_right.0" vType="moto" speedFactor="1.12" vaporized=""/>
    <tripinfo id="flow_5_increasing_0_S_straight.6" depart="299.00" departLane="S_in_1" departPos="84.30" departSpeed="11.04" departDelay="0.49" arrival="321.00" arrivalLane="N_out_1" arrivalPos="189.60" arrivalSpeed="15.16" duration="22.00" routeLength="315.70" waitingTime="0.00" waitingCount="0" stopTime="0.00" timeLoss="0.91" rerouteNo="0" devices="vehroute_flow_5_increasing_0_S_straight.6 tripinfo_flow_5_increasing_0_S_straight.6" vType="moto" speedFactor="1.10" vaporized=""/>