<?xml version="1.0" encoding="UTF-8"?>

<!-- generated on 2025-12-09 00:42:58 by Eclipse SUMO sumo Version 1.18.0
<configuration xmlns:xsi="http://www.w3.org/2001/XMLSchema-instance" xsi:noNamespaceSchemaLocation="http://sumo.dlr.de/xsd/sumoConfiguration.xsd">

    <input>
        <net-file value="nets/120p4k/net.net.xml"/>
        <route-files value="nets/120p4k/route_temp_123_136228221793904_64131698.rou.xml"/>
    </input>

    <output>
        <summary-output value="result_ddqn_1.2_0.1/summary_ep_1.xml"/>
        <tripinfo-output value="result_ddqn_1.2_0.1/tripinfo_ep_1.xml"/>
        <vehroute-output value="result_ddqn_1.2_0.1/vehroute_ep_1.xml"/>
    </output>

    <time>
        <begin value="0"/>
    </time>

    <report>
        <verbose value="true"/>
        <no-warnings value="true"/>
        <no-step-log value="true"/>
    </report>

    <traci_server>
        <remote-port value="56981"/>
    </traci_server>

    <gui_only>
        <gui-settings-file value="nets/120p4k/gui-settings.xml"/>
        <quit-on-end value="true"/>
    </gui_only>

</configuration>
-->

<tripinfos xmlns:xsi="http://www.w3.org/2001/XMLSchema-instance" xsi:noNamespaceSchemaLocation="http://sumo.dlr.de/xsd/tripinfo_file.xsd">
    <tripinfo id="flow_8_increasing_0_S_uturn.0" depart="0.00" departLane="S_in_0" departPos="120.11" departSpeed="4.48" departDelay="0.00" arrival="24.00" arrivalLane="S_out_1" arrivalPos="189.60" arrivalSpeed="13.35" duration="24.00" routeLength="263.76" waitingTime="0.00" waitingCount="0" stopTime="0.00" timeLoss="4.90" rerouteNo="0" devices="vehroute_flow_8_increasing_0_S_uturn.0 tripinfo_flow_8_increasing_0_S_uturn.0" vType="moto" speedFactor="1.05" vaporized=""/>
    <tripinfo id="flow_5_increasing_0_S_straight.0" depart="0.00" departLane="S_in_1" departPos="107.37" departSpeed="7.21" departDelay="0.00" arrival="25.00" arrivalLane="N_out_1" arrivalPos="189.60" arrivalSpeed="15.67" duration="25.00" routeLength="292.63" waitingTime="0.00" waitingCount="0" stopTime="0.00" timeLoss="6.12" rerouteNo="0" devices="vehroute_flow_5_increasing_0_S_straight.0 tripinfo_flow_5_increasing_0_S_straight.0" vType="moto" speedFactor="1.15" vaporized=""/>
    <tripinfo id="flow_6_increasing_0_S_left.0" depart="0.00" departLane="S_in_1" departPos="166.01" departSpeed="0.74" departDelay="0.00" arrival="25.00" arrivalLane="W_out_1" arrivalPos="189.60" arrivalSpeed="11.57" duration="25.00" routeLength="232.54" waitingTime="0.00" waitingCount="0" stopTime="0.00" timeLoss="4.36" rerouteNo="0" devices="vehroute_flow_6_increasing_0_S_left.0 tripinfo_flow_6_increasing_0_S_left.0" vType="moto" speedFactor="0.88" vaporized=""/>
    <tripinfo id="flow_2_increasing_0_N_left.0" depart="0.00" departLane="N_in_1" departPos="8.27" departSpeed="8.33" departDelay="0.00" arrival="32.00" arrivalLane="E_out_1" arrivalPos="189.60" arrivalSpeed="13.27" duration="32.00" routeLength="390.28" waitingTime="0.00" waitingCount="0" stopTime="0.00" timeLoss="2.89" rerouteNo="0" devices="vehroute_flow_2_increasing_0_N_left.0 tripinfo_flow_2_increasing_0_N_left.0" vType="moto" speedFactor="1.02" vaporized=""/>
    <tripinfo id="flow_4_increasing_0_N_uturn.0" depart="0.00" departLane="N_in_1" departPos="127.60" departSpeed="0.08" departDelay="0.00" arrival="32.00" arrivalLane="N_out_1" arrivalPos="189.60" arrivalSpeed="12.35" duration="32.00" routeLength="256.27" waitingTime="1.00" waitingCount="1" stopTime="0.00" timeLoss="9.86" rerouteNo="0" devices="vehroute_flow_4_increasing_0_N_uturn.0 tripinfo_flow_4_increasing_0_N_uturn.0" vType="moto" speedFactor="0.91" vaporized=""/>
    <tripinfo id="flow_3_increasing_0_N_right.0" depart="0.00" departLane="W_in_0" departPos="103.38" departSpeed="3.81" departDelay="0.00" arrival="35.00" arrivalLane="E_out_0" arrivalPos="189.60" arrivalSpeed="14.13" duration="35.00" routeLength="296.62" waitingTime="6.00" waitingCount="1" stopTime="0.00" timeLoss="15.40" rerouteNo="0" devices="vehroute_flow_3_increasing_0_N_right.0 tripinfo_flow_3_increasing_0_N_right.0" vType="moto" speedFactor="1.11" vaporized=""/>
    <tripinfo id="flow_9_increasing_0_E_straight.0" depart="0.00" departLane="E_in_0" departPos="168.29" departSpeed="10.73" departDelay="0.00" arrival="37.00" arrivalLane="W_out_0" arrivalPos="189.60" arrivalSpeed="12.90" duration="37.00" routeLength="231.71" waitingTime="12.00" waitingCount="1" stopTime="0.00" timeLoss="18.91" rerouteNo="0" devices="vehroute_flow_9_increasing_0_E_straight.0 tripinfo_flow_9_increasing_0_E_straight.0" vType="car" speedFactor="0.94" vaporized=""/>
    <tripinfo id="flow_16_increasing_0_W_uturn.0" depart="0.00" departLane="W_in_1" departPos="126.68" departSpeed="1.28" departDelay="0.00" arrival="38.00" arrivalLane="W_out_1" arrivalPos="189.60" arrivalSpeed="14.32" duration="38.00" routeLength="257.19" waitingTime="10.00" waitingCount="1" stopTime="0.00" timeLoss="18.51" rerouteNo="0" devices="vehroute_flow_16_increasing_0_W_uturn.0 tripinfo_flow_16_increasing_0_W_uturn.0" vType="moto" speedFactor="1.04" vaporized=""/>
    <tripinfo id="flow_14_increasing_0_W_left.0" depart="0.00" departLane="W_in_1" departPos="182.88" departSpeed="5.61" departDelay="0.00" arrival="39.00" arrivalLane="N_out_1" arrivalPos="189.60" arrivalSpeed="13.91" duration="39.00" routeLength="215.67" waitingTime="14.00" waitingCount="1" stopTime="0.00" timeLoss="22.95" rerouteNo="0" devices="vehroute_flow_14_increasing_0_W_left.0 tripinfo_flow_14_increasing_0_W_left.0" vType="moto" speedFactor="1.01" vaporized=""/>
    <tripinfo id="flow_15_increasing_0_W_right.0" depart="0.00" departLane="W_in_0" departPos="45.77" departSpeed="2.63" departDelay="0.00" arrival="40.00" arrivalLane="S_out_0" arrivalPos="189.60" arrivalSpeed="10.97" duration="40.00" routeLength="342.46" waitingTime="1.00" waitingCount="1" stopTime="0.00" timeLoss="9.94" rerouteNo="0" devices="vehroute_flow_15_increasing_0_W_right.0 tripinfo_flow_15_increasing_0_W_right.0" vType="moto" speedFactor="0.85" vaporized=""/>
    <tripinfo id="flow_11_increasing_0_E_right.0" depart="0.00" departLane="E_in_1" departPos="144.95" departSpeed="4.02" departDelay="0.00" arrival="41.00" arrivalLane="N_out_0" arrivalPos="189.60" arrivalSpeed="13.03" duration="41.00" routeLength="243.28" waitingTime="11.00" waitingCount="1" stopTime="0.00" timeLoss="21.88" rerouteNo="0" devices="vehroute_flow_11_increasing_0_E_right.0 tripinfo_flow_11_increasing_0_E_right.0" vType="bus" speedFactor="0.96" vaporized=""/>
    <tripinfo id="flow_13_increasing_0_W_straight.0" depart="0.00" departLane="W_in_0" departPos="24.53" departSpeed="3.97" departDelay="0.00" arrival="45.00" arrivalLane="E_out_0" arrivalPos="189.60" arrivalSpeed="11.64" duration="45.00" routeLength="375.47" waitingTime="0.00" waitingCount="0" stopTime="0.00" timeLoss="13.15" rerouteNo="0" devices="vehroute_flow_13_increasing_0_W_straight.0 tripinfo_flow_13_increasing_0_W_straight.0" vType="bus" speedFactor="0.86" vaporized=""/>
    <tripinfo id="flow_10_increasing_0_E_left.0" depart="0.00" departLane="E_in_0" departPos="44.88" departSpeed="8.19" departDelay="0.00" arrival="46.00" arrivalLane="S_out_1" arrivalPos="189.60" arrivalSpeed="14.14" duration="46.00" routeLength="353.67" waitingTime="12.00" waitingCount="2" stopTime="0.00" timeLoss="21.34" rerouteNo="0" devices="vehroute_flow_10_increasing_0_E_left.0 tripinfo_flow_10_increasing_0_E_left.0" vType="car" speedFactor="1.08" vaporized=""/>
    <tripinfo id="flow_7_increasing_0_S_right.0" depart="0.00" departLane="S_in_0" departPos="8.76" departSpeed="8.47" departDelay="0.00" arrival="53.00" arrivalLane="E_out_0" arrivalPos="189.60" arrivalSpeed="12.14" duration="53.00" routeLength="379.47" waitingTime="13.00" waitingCount="1" stopTime="0.00" timeLoss="21.30" rerouteNo="0" devices="vehroute_flow_7_increasing_0_S_right.0 tripinfo_flow_7_increasing_0_S_right.0" vType="bus" speedFactor="0.89" vaporized=""/>
    <tripinfo id="flow_1_increasing_0_N_straight.0" depart="0.00" departLane="N_in_0" departPos="8.62" departSpeed="8.51" departDelay="0.00" arrival="55.00" arrivalLane="S_out_0" arrivalPos="189.60" arrivalSpeed="11.68" duration="55.00" routeLength="391.38" waitingTime="12.00" waitingCount="1" stopTime="0.00" timeLoss="21.29" rerouteNo="0" devices="vehroute_flow_1_increasing_0_N_straight.0 tripinfo_flow_1_increasing_0_N_straight.0" vType="truck" speedFactor="0.86" vaporized=""/>
    <tripinfo id="flow_12_increasing_0_E_uturn.0" depart="0.00" departLane="E_in_0" departPos="5.65" departSpeed="13.76" departDelay="0.00" arrival="61.00" arrivalLane="E_out_1" arrivalPos="189.60" arrivalSpeed="13.58" duration="61.00" routeLength="378.22" waitingTime="24.00" waitingCount="2" stopTime="0.00" timeLoss="33.42" rerouteNo="0" devices="vehroute_flow_12_increasing_0_E_uturn.0 tripinfo_flow_12_increasing_0_E_uturn.0" vType="moto" speedFactor="1.03" vaporized=""/>
    <tripinfo id="flow_9_increasing_0_E_straight.1" depart="49.00" departLane="E_in_0" departPos="131.13" departSpeed="9.54" departDelay="0.92" arrival="67.00" arrivalLane="W_out_0" arrivalPos="189.60" arrivalSpeed="14.99" duration="18.00" routeLength="268.87" waitingTime="0.00" waitingCount="0" stopTime="0.00" timeLoss="1.19" rerouteNo="0" devices="vehroute_flow_9_increasing_0_E_straight.1 tripinfo_flow_9_increasing_0_E_straight.1" vType="moto" speedFactor="1.16" vaporized=""/>
    <tripinfo id="flow_13_increasing_0_W_straight.1" depart="51.00" departLane="W_in_1" departPos="31.93" departSpeed="9.28" departDelay="0.50" arrival="76.00" arrivalLane="E_out_1" arrivalPos="189.60" arrivalSpeed="15.45" duration="25.00" routeLength="368.07" waitingTime="0.00" waitingCount="0" stopTime="0.00" timeLoss="1.31" rerouteNo="0" devices="vehroute_flow_13_increasing_0_W_straight.1 tripinfo_flow_13_increasing_0_W_straight.1" vType="moto" speedFactor="1.19" vaporized=""/>
    <tripinfo id="flow_1_increasing_0_N_straight.1" depart="53.00" departLane="N_in_1" departPos="121.65" departSpeed="2.92" departDelay="0.64" arrival="83.00" arrivalLane="S_out_0" arrivalPos="189.60" arrivalSpeed="15.87" duration="30.00" routeLength="278.35" waitingTime="4.00" waitingCount="1" stopTime="0.00" timeLoss="12.52" rerouteNo="0" devices="vehroute_flow_1_increasing_0_N_straight.1 tripinfo_flow_1_increasing_0_N_straight.1" vType="moto" speedFactor="1.15" vaporized=""/>
    <tripinfo id="flow_5_increasing_0_S_straight.1" depart="50.00" departLane="S_in_1" departPos="58.36" departSpeed="11.64" departDelay="0.25" arrival="87.00" arrivalLane="N_out_0" arrivalPos="189.60" arrivalSpeed="11.81" duration="37.00" routeLength="341.64" waitingTime="3.00" waitingCount="1" stopTime="0.00" timeLoss="8.45" rerouteNo="0" devices="vehroute_flow_5_increasing_0_S_straight.1 tripinfo_flow_5_increasing_0_S_straight.1" vType="moto" speedFactor="0.87" vaporized=""/>
    <tripinfo id="flow_9_increasing_0_E_straight.2" depart="97.00" departLane="E_in_1" departPos="52.87" departSpeed="0.38" departDelay="0.85" arrival="127.00" arrivalLane="W_out_0" arrivalPos="189.60" arrivalSpeed="13.61" duration="30.00" routeLength="347.13" waitingTime="0.00" waitingCount="0" stopTime="0.00" timeLoss="4.24" rerouteNo="0" devices="vehroute_flow_9_increasing_0_E_straight.2 tripinfo_flow_9_increasing_0_E_straight.2" vType="moto" speedFactor="0.99" vaporized=""/>
    <tripinfo id="flow_13_increasing_0_W_straight.2" depart="102.00" departLane="W_in_1" departPos="59.51" departSpeed="13.32" departDelay="0.99" arrival="129.00" arrivalLane="E_out_1" arrivalPos="189.60" arrivalSpeed="13.35" duration="27.00" routeLength="340.49" waitingTime="0.00" waitingCount="0" stopTime="0.00" timeLoss="0.76" rerouteNo="0" devices="vehroute_flow_13_increasing_0_W_straight.2 tripinfo_flow_13_increasing_0_W_straight.2" vType="truck" speedFactor="0.97" vaporized=""/>
    <tripinfo id="flow_5_increasing_0_S_straight.2" depart="100.00" departLane="S_in_1" departPos="12.70" departSpeed="12.41" departDelay="0.50" arrival="148.00" arrivalLane="N_out_0" arrivalPos="189.60" arrivalSpeed="12.61" duration="48.00" routeLength="387.30" waitingTime="13.00" waitingCount="1" stopTime="0.00" timeLoss="18.42" rerouteNo="0" devices="vehroute_flow_5_increasing_0_S_straight.2 tripinfo_flow_5_increasing_0_S_straight.2" vType="moto" speedFactor="0.96" vaporized=""/>
    <tripinfo id="flow_1_increasing_0_N_straight.2" depart="105.00" departLane="N_in_1" departPos="107.53" departSpeed="1.11" departDelay="0.29" arrival="149.00" arrivalLane="S_out_0" arrivalPos="189.60" arrivalSpeed="12.77" duration="44.00" routeLength="292.47" waitingTime="12.00" waitingCount="1" stopTime="0.00" timeLoss="20.36" rerouteNo="0" devices="vehroute_flow_1_increasing_0_N_straight.2 tripinfo_flow_1_increasing_0_N_straight.2" vType="moto" speedFactor="0.93" vaporized=""/>
    <tripinfo id="flow_6_increasing_0_S_left.1" depart="125.00" departLane="S_in_0" departPos="73.90" departSpeed="6.54" departDelay="0.62" arrival="152.00" arrivalLane="W_out_1" arrivalPos="189.60" arrivalSpeed="13.84" duration="27.00" routeLength="324.65" waitingTime="0.00" waitingCount="0" stopTime="0.00" timeLoss="4.21" rerouteNo="0" devices="vehroute_flow_6_increasing_0_S_left.1 tripinfo_flow_6_increasing_0_S_left.1" vType="moto" speedFactor="1.08" vaporized=""/>
    <tripinfo id="flow_2_increasing_0_N_left.1" depart="122.00" departLane="N_in_0" departPos="8.88" departSpeed="2.82" departDelay="0.05" arrival="153.00" arrivalLane="E_out_1" arrivalPos="189.60" arrivalSpeed="14.94" duration="31.00" routeLength="389.67" waitingTime="0.00" waitingCount="0" stopTime="0.00" timeLoss="5.48" rerouteNo="0" devices="vehroute_flow_2_increasing_0_N_left.1 tripinfo_flow_2_increasing_0_N_left.1" vType="moto" speedFactor="1.12" vaporized=""/>
    <tripinfo id="flow_7_increasing_0_S_right.1" depart="122.00" departLane="S_in_1" departPos="66.71" departSpeed="7.87" departDelay="0.05" arrival="157.00" arrivalLane="E_out_0" arrivalPos="189.60" arrivalSpeed="10.41" duration="35.00" routeLength="321.52" waitingTime="0.00" waitingCount="0" stopTime="0.00" timeLoss="4.84" rerouteNo="0" devices="vehroute_flow_7_increasing_0_S_right.1 tripinfo_flow_7_increasing_0_S_right.1" vType="container" speedFactor="0.78" vaporized=""/>
    <tripinfo id="flow_15_increasing_0_W_right.1" depart="123.00" departLane="W_in_1" departPos="128.68" departSpeed="3.06" departDelay="0.45" arrival="159.00" arrivalLane="S_out_0" arrivalPos="189.60" arrivalSpeed="13.56" duration="36.00" routeLength="259.55" waitingTime="10.00" waitingCount="1" stopTime="0.00" timeLoss="17.04" rerouteNo="0" devices="vehroute_flow_15_increasing_0_W_right.1 tripinfo_flow_15_increasing_0_W_right.1" vType="moto" speedFactor="1.04" vaporized=""/>
    <tripinfo id="flow_14_increasing_0_W_left.1" depart="125.00" departLane="W_in_1" departPos="110.92" departSpeed="11.99" departDelay="0.62" arrival="159.00" arrivalLane="N_out_1" arrivalPos="189.60" arrivalSpeed="14.19" duration="34.00" routeLength="287.63" waitingTime="7.00" waitingCount="1" stopTime="0.00" timeLoss="13.63" rerouteNo="0" devices="vehroute_flow_14_increasing_0_W_left.1 tripinfo_flow_14_increasing_0_W_left.1" vType="moto" speedFactor="1.05" vaporized=""/>
    <tripinfo id="flow_11_increasing_0_E_right.1" depart="127.00" departLane="E_in_0" departPos="19.85" departSpeed="3.71" departDelay="0.10" arrival="163.00" arrivalLane="N_out_0" arrivalPos="189.60" arrivalSpeed="11.73" duration="36.00" routeLength="368.38" waitingTime="0.00" waitingCount="0" stopTime="0.00" timeLoss="4.49" rerouteNo="0" devices="vehroute_flow_11_increasing_0_E_right.1 tripinfo_flow_11_increasing_0_E_right.1" vType="moto" speedFactor="0.88" vaporized=""/>
    <tripinfo id="flow_3_increasing_0_N_right.1" depart="131.00" departLane="W_in_1" departPos="175.36" departSpeed="3.95" departDelay="0.79" arrival="169.00" arrivalLane="E_out_0" arrivalPos="189.60" arrivalSpeed="12.18" duration="38.00" routeLength="224.64" waitingTime="6.00" waitingCount="2" stopTime="0.00" timeLoss="19.61" rerouteNo="0" devices="vehroute_flow_3_increasing_0_N_right.1 tripinfo_flow_3_increasing_0_N_right.1" vType="container" speedFactor="0.91" vaporized=""/>
    <tripinfo id="flow_9_increasing_0_E_straight.3" depart="145.00" departLane="E_in_0" departPos="134.76" departSpeed="5.03" departDelay="0.77" arrival="170.00" arrivalLane="W_out_0" arrivalPos="189.60" arrivalSpeed="11.06" duration="25.00" routeLength="265.24" waitingTime="0.00" waitingCount="0" stopTime="0.00" timeLoss="2.44" rerouteNo="0" devices="vehroute_flow_9_increasing_0_E_straight.3 tripinfo_flow_9_increasing_0_E_straight.3" vType="truck" speedFactor="0.85" vaporized=""/>
    <tripinfo id="flow_10_increasing_0_E_left.1" depart="127.00" departLane="E_in_1" departPos="185.21" departSpeed="3.91" departDelay="0.10" arrival="175.00" arrivalLane="S_out_0" arrivalPos="189.60" arrivalSpeed="10.51" duration="48.00" routeLength="213.34" waitingTime="18.00" waitingCount="2" stopTime="0.00" timeLoss="27.06" rerouteNo="0" devices="vehroute_flow_10_increasing_0_E_left.1 tripinfo_flow_10_increasing_0_E_left.1" vType="car" speedFactor="0.77" vaporized=""/>
    <tripinfo id="flow_13_increasing_0_W_straight.3" depart="152.00" departLane="W_in_1" departPos="77.94" departSpeed="4.74" departDelay="0.49" arrival="175.00" arrivalLane="E_out_1" arrivalPos="189.60" arrivalSpeed="14.87" duration="23.00" routeLength="322.06" waitingTime="0.00" waitingCount="0" stopTime="0.00" timeLoss="2.36" rerouteNo="0" devices="vehroute_flow_13_increasing_0_W_straight.3 tripinfo_flow_13_increasing_0_W_straight.3" vType="moto" speedFactor="1.20" vaporized=""/>
    <tripinfo id="flow_5_increasing_0_S_straight.3" depart="150.00" departLane="S_in_1" departPos="108.76" departSpeed="13.07" departDelay="0.75" arrival="182.00" arrivalLane="N_out_0" arrivalPos="189.60" arrivalSpeed="14.70" duration="32.00" routeLength="291.24" waitingTime="7.00" waitingCount="1" stopTime="0.00" timeLoss="12.42" rerouteNo="0" devices="vehroute_flow_5_increasing_0_S_straight.3 tripinfo_flow_5_increasing_0_S_straight.3" vType="moto" speedFactor="1.08" vaporized=""/>
    <tripinfo id="flow_1_increasing_0_N_straight.3" depart="158.00" departLane="N_in_0" departPos="19.25" departSpeed="10.28" departDelay="0.93" arrival="186.00" arrivalLane="S_out_0" arrivalPos="189.60" arrivalSpeed="14.51" duration="28.00" routeLength="380.75" waitingTime="0.00" waitingCount="0" stopTime="0.00" timeLoss="1.46" rerouteNo="0" devices="vehroute_flow_1_increasing_0_N_straight.3 tripinfo_flow_1_increasing_0_N_straight.3" vType="moto" speedFactor="1.06" vaporized=""/>
    <tripinfo id="flow_9_increasing_0_E_straight.4" depart="193.00" departLane="E_in_0" departPos="148.08" departSpeed="8.76" departDelay="0.69" arrival="227.00" arrivalLane="W_out_0" arrivalPos="189.60" arrivalSpeed="12.55" duration="34.00" routeLength="251.92" waitingTime="3.00" waitingCount="1" stopTime="0.00" timeLoss="14.41" rerouteNo="0" devices="vehroute_flow_9_increasing_0_E_straight.4 tripinfo_flow_9_increasing_0_E_straight.4" vType="bus" speedFactor="0.95" vaporized=""/>
    <tripinfo id="flow_13_increasing_0_W_straight.4" depart="203.00" departLane="W_in_0" departPos="167.23" departSpeed="1.71" departDelay="0.98" arrival="227.00" arrivalLane="E_out_0" arrivalPos="189.60" arrivalSpeed="11.74" duration="24.00" routeLength="232.77" waitingTime="0.00" waitingCount="0" stopTime="0.00" timeLoss="4.64" rerouteNo="0" devices="vehroute_flow_13_increasing_0_W_straight.4 tripinfo_flow_13_increasing_0_W_straight.4" vType="truck" speedFactor="0.87" vaporized=""/>
    <tripinfo id="flow_1_increasing_0_N_straight.4" depart="210.00" departLane="N_in_0" departPos="8.08" departSpeed="6.42" departDelay="0.58" arrival="244.00" arrivalLane="S_out_0" arrivalPos="189.60" arrivalSpeed="12.90" duration="34.00" routeLength="391.92" waitingTime="0.00" waitingCount="0" stopTime="0.00" timeLoss="4.32" rerouteNo="0" devices="vehroute_flow_1_increasing_0_N_straight.4 tripinfo_flow_1_increasing_0_N_straight.4" vType="car" speedFactor="0.96" vaporized=""/>
    <tripinfo id="flow_5_increasing_0_S_straight.4" depart="200.00" departLane="S_in_1" departPos="23.57" departSpeed="9.61" departDelay="1.00" arrival="254.00" arrivalLane="N_out_0" arrivalPos="189.60" arrivalSpeed="12.88" duration="54.00" routeLength="376.43" waitingTime="10.00" waitingCount="1" stopTime="0.00" timeLoss="25.80" rerouteNo="0" devices="vehroute_flow_5_increasing_0_S_straight.4 tripinfo_flow_5_increasing_0_S_straight.4" vType="container" speedFactor="0.97" vaporized=""/>
    <tripinfo id="flow_9_increasing_0_E_straight.5" depart="241.00" departLane="E_in_1" departPos="171.48" departSpeed="2.13" departDelay="0.62" arrival="261.00" arrivalLane="W_out_1" arrivalPos="189.60" arrivalSpeed="13.44" duration="20.00" routeLength="228.52" waitingTime="0.00" waitingCount="0" stopTime="0.00" timeLoss="2.66" rerouteNo="0" devices="vehroute_flow_9_increasing_0_E_straight.5 tripinfo_flow_9_increasing_0_E_straight.5" vType="moto" speedFactor="1.00" vaporized=""/>
    <tripinfo id="flow_7_increasing_0_S_right.2" depart="244.00" departLane="S_in_1" departPos="108.70" departSpeed="8.13" departDelay="0.10" arrival="271.00" arrivalLane="E_out_0" arrivalPos="189.60" arrivalSpeed="13.11" duration="27.00" routeLength="279.53" waitingTime="0.00" waitingCount="0" stopTime="0.00" timeLoss="4.96" rerouteNo="0" devices="vehroute_flow_7_increasing_0_S_right.2 tripinfo_flow_7_increasing_0_S_right.2" vType="car" speedFactor="0.99" vaporized=""/>
    <tripinfo id="flow_5_increasing_0_S_straight.5" depart="249.00" departLane="S_in_1" departPos="168.21" departSpeed="11.63" departDelay="0.25" arrival="271.00" arrivalLane="N_out_1" arrivalPos="189.60" arrivalSpeed="11.86" duration="22.00" routeLength="231.79" waitingTime="0.00" waitingCount="0" stopTime="0.00" timeLoss="3.97" rerouteNo="0" devices="vehroute_flow_5_increasing_0_S_straight.5 tripinfo_flow_5_increasing_0_S_straight.5" vType="moto" speedFactor="0.94" vaporized=""/>
    <tripinfo id="flow_4_increasing_0_N_uturn.1" depart="240.00" departLane="N_in_0" departPos="185.47" departSpeed="4.13" departDelay="0.77" arrival="274.00" arrivalLane="N_out_1" arrivalPos="189.60" arrivalSpeed="13.49" duration="34.00" routeLength="198.40" waitingTime="12.00" waitingCount="2" stopTime="0.00" timeLoss="19.01" rerouteNo="0" devices="vehroute_flow_4_increasing_0_N_uturn.1 tripinfo_flow_4_increasing_0_N_uturn.1" vType="moto" speedFactor="1.03" vaporized=""/>
    <tripinfo id="flow_1_increasing_0_N_straight.5" depart="262.00" departLane="N_in_1" departPos="177.50" departSpeed="4.63" departDelay="0.22" arrival="281.00" arrivalLane="S_out_1" arrivalPos="189.60" arrivalSpeed="14.66" duration="19.00" routeLength="222.50" waitingTime="0.00" waitingCount="0" stopTime="0.00" timeLoss="4.06" rerouteNo="0" devices="vehroute_flow_1_increasing_0_N_straight.5 tripinfo_flow_1_increasing_0_N_straight.5" vType="moto" speedFactor="1.10" vaporized=""/>
    <tripinfo id="flow_2_increasing_0_N_left.2" depart="244.00" departLane="N_in_0" departPos="71.94" departSpeed="3.46" departDelay="0.10" arrival="283.00" arrivalLane="E_out_1" arrivalPos="189.60" arrivalSpeed="12.22" duration="39.00" routeLength="326.61" waitingTime="0.00" waitingCount="0" stopTime="0.00" timeLoss="11.28" rerouteNo="0" devices="vehroute_flow_2_increasing_0_N_left.2 tripinfo_flow_2_increasing_0_N_left.2" vType="container" speedFactor="0.90" vaporized=""/>
    <tripinfo id="flow_6_increasing_0_S_left.2" depart="249.00" departLane="S_in_0" departPos="31.76" departSpeed="12.89" departDelay="0.24" arrival="285.00" arrivalLane="W_out_1" arrivalPos="189.60" arrivalSpeed="13.09" duration="36.00" routeLength="366.79" waitingTime="3.00" waitingCount="1" stopTime="0.00" timeLoss="9.08" rerouteNo="0" devices="vehroute_flow_6_increasing_0_S_left.2 tripinfo_flow_6_increasing_0_S_left.2" vType="moto" speedFactor="1.03" vaporized=""/>
    <tripinfo id="flow_8_increasing_0_S_uturn.1" depart="264.00" departLane="S_in_1" departPos="159.96" departSpeed="5.77" departDelay="0.84" arrival="289.00" arrivalLane="S_out_1" arrivalPos="189.60" arrivalSpeed="12.10" duration="25.00" routeLength="223.91" waitingTime="0.00" waitingCount="0" stopTime="0.00" timeLoss="5.17" rerouteNo="0" devices="vehroute_flow_8_increasing_0_S_uturn.1 tripinfo_flow_8_increasing_0_S_uturn.1" vType="car" speedFactor="0.90" vaporized=""/>
    <tripinfo id="flow_16_increasing_0_W_uturn.1" depart="243.00" departLane="W_in_0" departPos="81.69" departSpeed="10.54" departDelay="0.28" arrival="293.00" arrivalLane="W_out_1" arrivalPos="189.60" arrivalSpeed="14.76" duration="50.00" routeLength="302.18" waitingTime="22.00" waitingCount="1" stopTime="0.00" timeLoss="29.09" rerouteNo="0" devices="vehroute_flow_16_increasing_0_W_uturn.1 tripinfo_flow_16_increasing_0_W_uturn.1" vType="moto" speedFactor="1.14" vaporized=""/>
    <tripinfo id="flow_11_increasing_0_E_right.2" depart="254.00" departLane="E_in_1" departPos="21.68" departSpeed="5.95" departDelay="0.19" arrival="293.00" arrivalLane="N_out_0" arrivalPos="189.60" arrivalSpeed="13.90" duration="39.00" routeLength="366.55" waitingTime="4.00" waitingCount="1" stopTime="0.00" timeLoss="12.14" rerouteNo="0" devices="vehroute_flow_11_increasing_0_E_right.2 tripinfo_flow_11_increasing_0_E_right.2" vType="moto" speedFactor="1.04" vaporized=""/>
    <tripinfo id="flow_15_increasing_0_W_right.2" depart="246.00" departLane="W_in_0" departPos="121.56" departSpeed="11.33" departDelay="0.90" arrival="294.00" arrivalLane="S_out_0" arrivalPos="189.60" arrivalSpeed="12.49" duration="48.00" routeLength="266.67" waitingTime="21.00" waitingCount="1" stopTime="0.00" timeLoss="27.19" rerouteNo="0" devices="vehroute_flow_15_increasing_0_W_right.2 tripinfo_flow_15_increasing_0_W_right.2" vType="moto" speedFactor="0.95" vaporized=""/>
    <tripinfo id="flow_13_increasing_0_W_straight.5" depart="253.00" departLane="W_in_1" departPos="124.88" departSpeed="0.01" departDelay="0.48" arrival="296.00" arrivalLane="E_out_0" arrivalPos="189.60" arrivalSpeed="14.31" duration="43.00" routeLength="275.12" waitingTime="10.00" waitingCount="2" stopTime="0.00" timeLoss="23.60" rerouteNo="0" devices="vehroute_flow_13_increasing_0_W_straight.5 tripinfo_flow_13_increasing_0_W_straight.5" vType="moto" speedFactor="1.07" vaporized=""/>
    <tripinfo id="flow_12_increasing_0_E_uturn.1" depart="247.00" departLane="E_in_0" departPos="104.14" departSpeed="11.66" departDelay="0.70" arrival="297.00" arrivalLane="E_out_1" arrivalPos="189.60" arrivalSpeed="11.29" duration="50.00" routeLength="279.73" waitingTime="18.00" waitingCount="1" stopTime="0.00" timeLoss="25.37" rerouteNo="0" devices="vehroute_flow_12_increasing_0_E_uturn.1 tripinfo_flow_12_increasing_0_E_uturn.1" vType="moto" speedFactor="0.89" vaporized=""/>
    <tripinfo id="flow_14_increasing_0_W_left.2" depart="249.00" departLane="W_in_1" departPos="89.17" departSpeed="10.29" departDelay="0.24" arrival="297.00" arrivalLane="N_out_1" arrivalPos="189.60" arrivalSpeed="12.81" duration="48.00" routeLength="309.38" waitingTime="16.00" waitingCount="1" stopTime="0.00" timeLoss="22.71" rerouteNo="0" devices="vehroute_flow_14_increasing_0_W_left.2 tripinfo_flow_14_increasing_0_W_left.2" vType="car" speedFactor="0.93" vaporized=""/>
    <tripinfo id="flow_10_increasing_0_E_left.2" depart="254.00" departLane="E_in_1" departPos="92.22" departSpeed="0.19" departDelay="0.19" arrival="300.00" arrivalLane="S_out_1" arrivalPos="189.60" arrivalSpeed="14.74" duration="46.00" routeLength="306.33" waitingTime="11.00" waitingCount="2" stopTime="0.00" timeLoss="26.11" rerouteNo="0" devices="vehroute_flow_10_increasing_0_E_left.2 tripinfo_flow_10_increasing_0_E_left.2" vType="moto" speedFactor="1.14" vaporized=""/>
    <tripinfo id="flow_3_increasing_0_N_right.2" depart="261.00" departLane="W_in_1" departPos="74.60" departSpeed="10.27" departDelay="0.58" arrival="300.00" arrivalLane="E_out_0" arrivalPos="189.60" arrivalSpeed="11.29" duration="39.00" routeLength="325.40" waitingTime="2.00" waitingCount="1" stopTime="0.00" timeLoss="12.48" rerouteNo="0" devices="vehroute_flow_3_increasing_0_N_right.2 tripinfo_flow_3_increasing_0_N_right.2" vType="moto" speedFactor="0.90" vaporized=""/>
    <tripinfo id="flow_9_increasing_0_E_straight.6" depart="289.00" departLane="E_in_1" departPos="29.07" departSpeed="2.94" departDelay="0.54" arrival="318.00" arrivalLane="W_out_0" arrivalPos="189.60" arrivalSpeed="13.41" duration="29.00" routeLength="370.93" waitingTime="0.00" waitingCount="0" stopTime="0.00" timeLoss="2.83" rerouteNo="0" devices="vehroute_flow_9_increasing_0_E_straight.6 tripinfo_flow_9_increasing_0_E_straight.6" vType="moto" speedFactor="1.02" vaporized=""/>
    <tripinfo id="flow_29_increasing_300_W_straight.0" depart="300.00" departLane="W_in_0" departPos="114.62" departSpeed="10.70" departDelay="0.00" arrival="321.00" arrivalLane="E_out_0" arrivalPos="189.60" arrivalSpeed="13.27" duration="21.00" routeLength="285.38" waitingTime="0.00" waitingCount="0" stopTime="0.00" timeLoss="1.09" rerouteNo="0" devices="vehroute_flow_29_increasing_300_W_straight.0 tripinfo_flow_29_increasing_300_W_straight.0" vType="moto" speedFactor="1.04" vaporized=""/>
    <tripinfo id="flow_26_increasing_300_E_left.0" depart="300.00" departLane="E_in_1" departPos="126.29" departSpeed="9.67" departDelay="0.00" arrival="326.00" arrivalLane="S_out_1" arrivalPos="189.60" arrivalSpeed="13.01" duration="26.00" routeLength="272.26" waitingTime="0.00" waitingCount="0" stopTime="0.00" timeLoss="4.07" rerouteNo="0" devices="vehroute_flow_26_increasing_300_E_left.0 tripinfo_flow_26_increasing_300_E_left.0" vType="moto" speedFactor="0.94" vaporized=""/>