<?xml version="1.0" encoding="UTF-8"?>

<!-- generated on 2025-12-09 00:46:37 by Eclipse SUMO sumo Version 1.18.0
<configuration xmlns:xsi="http://www.w3.org/2001/XMLSchema-instance" xsi:noNamespaceSchemaLocation="http://sumo.dlr.de/xsd/sumoConfiguration.xsd">

    <input>
        <net-file value="nets/120p4k/net.net.xml"/>
        <route-files value="nets/120p4k/route_temp_123_136228221793904_64131698.rou.xml"/>
    </input>

    <output>
        <summary-output value="result_ddqn_1.2_0.1/summary_ep_5.xml"/>
        <tripinfo-output value="result_ddqn_1.2_0.1/tripinfo_ep_5.xml"/>
        <vehroute-output value="result_ddqn_1.2_0.1/vehroute_ep_5.xml"/>
    </output>

    <time>
        <begin value="0"/>
    </time>

    <report>
        <verbose value="true"/>
        <no-warnings value="true"/>
        <no-step-log value="true"/>
    </report>

    <traci_server>
        <remote-port value="48531"/>
    </traci_server>

    <gui_only>
        <gui-settings-file value="nets/120p4k/gui-settings.xml"/>
        <quit-on-end value="true"/>
    </gui_only>

</configuration>
-->

<routes xmlns:xsi="http://www.w3.org/2001/XMLSchema-instance" xsi:noNamespaceSchemaLocation="http://sumo.dlr.de/xsd/routes_file.xsd">
    <vehicle id="flow_8_increasing_0_S_uturn.0" type="moto" depart="0.00" departLane="0" departPos="178.0418" departSpeed="8.0286" speedFactor="1.0505" arrival="19.00">
        <route edges="S_in S_out"/>
    </vehicle>

    <vehicle id="flow_3_increasing_0_N_right.0" type="moto" depart="0.00" departLane="0" departPos="103.3842" departSpeed="3.8146" speedFactor="1.1088" arrival="24.00">
        <route edges="N_in W_out"/>
    </vehicle>

    <vehicle id="flow_6_increasing_0_S_left.0" type="moto" depart="0.00" departLane="1" departPos="166.0107" departSpeed="0.7376" speedFactor="0.8806" arrival="25.00">
        <route edges="S_in W_out"/>
    </vehicle>

    <vehicle id="flow_4_increasing_0_N_uturn.0" type="moto" depart="0.00" departLane="1" departPos="127.6015" departSpeed="0.0761" speedFactor="0.9074" arrival="28.00">
        <route edges="N_in N_out"/>
    </vehicle>

    <vehicle id="flow_7_increasing_0_S_right.0" type="bus" depart="0.00" departLane="0" departPos="97.2584" departSpeed="8.4712" speedFactor="0.8915" arrival="29.00">
        <route edges="S_in E_out"/>
    </vehicle>

    <vehicle id="flow_2_increasing_0_N_left.0" type="moto" depart="0.00" departLane="1" departPos="8.2688" departSpeed="8.3291" speedFactor="1.0157" arrival="31.00">
        <route edges="N_in E_out"/>
    </vehicle>

    <vehicle id="flow_5_increasing_0_S_straight.0" type="moto" depart="0.00" departLane="1" departPos="107.3659" departSpeed="7.2113" speedFactor="1.1475" arrival="35.00">
        <route edges="W_in E_out"/>
    </vehicle>

    <vehicle id="flow_16_increasing_0_W_uturn.0" type="moto" depart="0.00" departLane="1" departPos="126.6766" departSpeed="1.2848" speedFactor="1.0383" arrival="35.00">
        <route edges="W_in W_out"/>
    </vehicle>

    <vehicle id="flow_12_increasing_0_E_uturn.0" type="moto" depart="0.00" departLane="1" departPos="129.8894" departSpeed="0.429" speedFactor="1.0348" arrival="36.00">
        <route edges="E_in E_out"/>
    </vehicle>

    <vehicle id="flow_11_increasing_0_E_right.0" type="bus" depart="0.00" departLane="1" departPos="30.1666" departSpeed="10.1813" speedFactor="0.9581" arrival="39.00">
        <route edges="E_in N_out"/>
    </vehicle>

    <vehicle id="flow_9_increasing_0_E_straight.0" type="car" depart="0.00" departLane="1" departPos="75.1912" departSpeed="11.5508" speedFactor="0.9362" arrival="40.00">
        <route edges="E_in W_out"/>
    </vehicle>

    <vehicle id="flow_15_increasing_0_W_right.0" type="moto" depart="0.00" departLane="1" departPos="45.7673" departSpeed="1.9778" speedFactor="0.8472" arrival="40.00">
        <route edges="W_in S_out"/>
    </vehicle>

    <vehicle id="flow_14_increasing_0_W_left.0" type="moto" depart="0.00" departLane="1" departPos="50.0682" departSpeed="13.5426" speedFactor="1.0101" arrival="42.00">
        <route edges="W_in N_out"/>
    </vehicle>

    <vehicle id="flow_13_increasing_0_W_straight.0" type="bus" depart="0.00" departLane="0" departPos="23.7725" departSpeed="1.5496" speedFactor="0.8617" arrival="43.00">
        <route edges="W_in E_out"/>
    </vehicle>

    <vehicle id="flow_10_increasing_0_E_left.0" type="car" depart="0.00" departLane="0" departPos="6.1463" departSpeed="3.5622" speedFactor="1.0826" arrival="44.00">
        <route edges="E_in S_out"/>
    </vehicle>

    <vehicle id="flow_1_increasing_0_N_straight.0" type="truck" depart="0.00" departLane="0" departPos="8.6229" departSpeed="8.5053" speedFactor="0.8588" arrival="54.00">
        <route edges="S_in N_out"/>
    </vehicle>

    <vehicle id="flow_9_increasing_0_E_straight.1" type="moto" depart="49.00" departLane="0" departPos="131.129" departSpeed="9.5396" speedFactor="1.1582" arrival="68.00">
        <route edges="E_in W_out"/>
    </vehicle>

    <vehicle id="flow_13_increasing_0_W_straight.1" type="moto" depart="51.00" departLane="1" departPos="31.9285" departSpeed="9.2811" speedFactor="1.1853" arrival="77.00">
        <route edges="W_in E_out"/>
    </vehicle>

    <vehicle id="flow_5_increasing_0_S_straight.1" type="moto" depart="50.00" departLane="1" departPos="58.3562" departSpeed="11.6446" speedFactor="0.8727" arrival="80.00">
        <route edges="W_in E_out"/>
    </vehicle>

    <vehicle id="flow_1_increasing_0_N_straight.1" type="moto" depart="53.00" departLane="1" departPos="121.6549" departSpeed="2.9213" speedFactor="1.1462" arrival="94.00">
        <route edges="S_in N_out"/>
    </vehicle>

    <vehicle id="flow_1_increasing_0_N_straight.2" type="moto" depart="105.00" departLane="1" departPos="107.5311" departSpeed="1.1094" speedFactor="0.9279" arrival="131.00">
        <route edges="S_in N_out"/>
    </vehicle>

    <vehicle id="flow_9_increasing_0_E_straight.2" type="moto" depart="97.00" departLane="1" departPos="52.8684" departSpeed="0.3845" speedFactor="0.9938" arrival="144.00">
        <route edges="E_in W_out"/>
    </vehicle>

    <vehicle id="flow_5_increasing_0_S_straight.2" type="moto" depart="100.00" departLane="1" departPos="12.6982" departSpeed="12.4143" speedFactor="0.9623" arrival="145.00">
        <route edges="W_in E_out"/>
    </vehicle>

    <vehicle id="flow_15_increasing_0_W_right.1" type="moto" depart="123.00" departLane="1" departPos="128.6773" departSpeed="3.0596" speedFactor="1.0365" arrival="147.00">
        <route edges="W_in S_out"/>
    </vehicle>

    <vehicle id="flow_13_increasing_0_W_straight.2" type="truck" depart="102.00" departLane="1" departPos="59.5081" departSpeed="13.3195" speedFactor="0.9657" arrival="148.00">
        <route edges="W_in E_out"/>
    </vehicle>

    <vehicle id="flow_14_increasing_0_W_left.1" type="moto" depart="125.00" departLane="1" departPos="110.9191" departSpeed="11.9947" speedFactor="1.0453" arrival="148.00">
        <route edges="W_in N_out"/>
    </vehicle>

    <vehicle id="flow_10_increasing_0_E_left.1" type="car" depart="127.00" departLane="1" departPos="185.2056" departSpeed="3.9115" speedFactor="0.7706" arrival="154.00">
        <route edges="E_in S_out"/>
    </vehicle>

    <vehicle id="flow_2_increasing_0_N_left.1" type="moto" depart="122.00" departLane="0" departPos="8.8817" departSpeed="2.8196" speedFactor="1.1228" arrival="155.00">
        <route edges="N_in E_out"/>
    </vehicle>

    <vehicle id="flow_6_increasing_0_S_left.1" type="moto" depart="125.00" departLane="0" departPos="73.8966" departSpeed="6.0927" speedFactor="1.0788" arrival="156.00">
        <route edges="S_in W_out"/>
    </vehicle>

    <vehicle id="flow_3_increasing_0_N_right.1" type="container" depart="131.00" departLane="1" departPos="175.3621" departSpeed="7.2456" speedFactor="0.9146" arrival="166.00">
        <route edges="N_in W_out"/>
    </vehicle>

    <vehicle id="flow_7_increasing_0_S_right.1" type="container" depart="122.00" departLane="1" departPos="66.71" departSpeed="7.8717" speedFactor="0.7845" arrival="167.00">
        <route edges="S_in E_out"/>
    </vehicle>

    <vehicle id="flow_11_increasing_0_E_right.1" type="moto" depart="127.00" departLane="0" departPos="19.8546" departSpeed="3.7056" speedFactor="0.8806" arrival="171.00">
        <route edges="E_in N_out"/>
    </vehicle>

    <vehicle id="flow_9_increasing_0_E_straight.3" type="truck" depart="145.00" departLane="0" departPos="134.7579" departSpeed="5.0315" speedFactor="0.8515" arrival="171.00">
        <route edges="E_in W_out"/>
    </vehicle>

    <vehicle id="flow_5_increasing_0_S_straight.3" type="moto" depart="150.00" departLane="1" departPos="108.7646" departSpeed="13.0742" speedFactor="1.0764" arrival="171.00">
        <route edges="W_in E_out"/>
    </vehicle>

    <vehicle id="flow_13_increasing_0_W_straight.3" type="moto" depart="152.00" departLane="1" departPos="77.9408" departSpeed="4.7411" speedFactor="1.2027" arrival="175.00">
        <route edges="W_in E_out"/>
    </vehicle>

    <vehicle id="flow_1_increasing_0_N_straight.3" type="moto" depart="158.00" departLane="0" departPos="19.2493" departSpeed="10.2819" speedFactor="1.0575" arrival="193.00">
        <route edges="S_in N_out"/>
    </vehicle>

    <vehicle id="flow_9_increasing_0_E_straight.4" type="bus" depart="193.00" departLane="0" departPos="148.0778" departSpeed="8.7623" speedFactor="0.9525" arrival="216.00">
        <route edges="E_in W_out"/>
    </vehicle>

    <vehicle id="flow_13_increasing_0_W_straight.4" type="truck" depart="203.00" departLane="0" departPos="167.2268" departSpeed="1.7052" speedFactor="0.8691" arrival="227.00">
        <route edges="W_in E_out"/>
    </vehicle>

    <vehicle id="flow_5_increasing_0_S_straight.4" type="container" depart="200.00" departLane="1" departPos="23.5668" departSpeed="9.6088" speedFactor="0.9706" arrival="230.00">
        <route edges="W_in E_out"/>
    </vehicle>

    <vehicle id="flow_1_increasing_0_N_straight.4" type="car" depart="210.00" departLane="0" departPos="8.0759" departSpeed="6.4168" speedFactor="0.9617" arrival="242.00">
        <route edges="S_in N_out"/>
    </vehicle>

    <vehicle id="flow_9_increasing_0_E_straight.5" type="moto" depart="241.00" departLane="1" departPos="171.4793" departSpeed="2.1268" speedFactor="0.9964" arrival="260.00">
        <route edges="E_in W_out"/>
    </vehicle>

    <vehicle id="flow_16_increasing_0_W_uturn.1" type="moto" depart="243.00" departLane="0" departPos="81.6907" departSpeed="10.5402" speedFactor="1.1432" arrival="268.00">
        <route edges="W_in W_out"/>
    </vehicle>

    <vehicle id="flow_15_increasing_0_W_right.2" type="moto" depart="246.00" departLane="0" departPos="121.5569" departSpeed="11.3311" speedFactor="0.9517" arrival="270.00">
        <route edges="W_in S_out"/>
    </vehicle>

    <vehicle id="flow_13_increasing_0_W_straight.5" type="moto" depart="253.00" departLane="1" departPos="174.172" departSpeed="9.7665" speedFactor="1.0668" arrival="270.00">
        <route edges="W_in E_out"/>
    </vehicle>

    <vehicle id="flow_5_increasing_0_S_straight.5" type="moto" depart="249.00" departLane="1" departPos="91.5182" departSpeed="12.7817" speedFactor="0.9374" arrival="274.00">
        <route edges="W_in E_out"/>
    </vehicle>

    <vehicle id="flow_11_increasing_0_E_right.2" type="moto" depart="254.00" departLane="0" departPos="161.4056" departSpeed="1.6513" speedFactor="1.0390" arrival="276.00">
        <route edges="E_in N_out"/>
    </vehicle>

    <vehicle id="flow_10_increasing_0_E_left.2" type="moto" depart="254.00" departLane="1" departPos="172.3747" departSpeed="7.7164" speedFactor="1.1413" arrival="278.00">
        <route edges="E_in S_out"/>
    </vehicle>

    <vehicle id="flow_12_increasing_0_E_uturn.1" type="moto" depart="247.00" departLane="0" departPos="104.1356" departSpeed="11.6643" speedFactor="0.8882" arrival="279.00">
        <route edges="E_in E_out"/>
    </vehicle>

    <vehicle id="flow_14_increasing_0_W_left.2" type="car" depart="249.00" departLane="0" departPos="64.2471" departSpeed="6.0657" speedFactor="0.9279" arrival="280.00">
        <route edges="W_in N_out"/>
    </vehicle>

    <vehicle id="flow_7_increasing_0_S_right.2" type="car" depart="244.00" departLane="1" departPos="108.7048" departSpeed="8.1312" speedFactor="0.9870" arrival="285.00">
        <route edges="S_in E_out"/>
    </vehicle>

    <vehicle id="flow_1_increasing_0_N_straight.5" type="moto" depart="262.00" departLane="0" departPos="87.7633" departSpeed="12.0348" speedFactor="1.1043" arrival="285.00">
        <route edges="S_in N_out"/>
    </vehicle>

    <vehicle id="flow_6_increasing_0_S_left.2" type="moto" depart="249.00" departLane="1" departPos="65.5698" departSpeed="2.39" speedFactor="1.0265" arrival="286.00">
        <route edges="S_in W_out"/>
    </vehicle>

    <vehicle id="flow_4_increasing_0_N_uturn.1" type="moto" depart="240.00" departLane="0" departPos="185.4693" departSpeed="4.1297" speedFactor="1.0283" arrival="288.00">
        <route edges="N_in N_out"/>
    </vehicle>

    <vehicle id="flow_3_increasing_0_N_right.2" type="moto" depart="261.00" departLane="1" departPos="92.4194" departSpeed="4.9333" speedFactor="0.9020" arrival="289.00">
        <route edges="N_in W_out"/>
    </vehicle>

    <vehicle id="flow_2_increasing_0_N_left.2" type="container" depart="244.00" departLane="0" departPos="71.9448" departSpeed="3.463" speedFactor="0.8985" arrival="298.00">
        <route edges="N_in E_out"/>
    </vehicle>

    <vehicle id="flow_8_increasing_0_S_uturn.1" type="car" depart="264.00" departLane="1" departPos="39.3431" departSpeed="4.1521" speedFactor="0.8975" arrival="313.00">
        <route edges="S_in S_out"/>
    </vehicle>

    <vehicle id="flow_22_increasing_300_S_left.0" type="moto" depart="300.00" departLane="0" departPos="178.3578" departSpeed="3.8147" speedFactor="1.1705" arrival="317.00">
        <route edges="S_in W_out"/>
    </vehicle>

    <vehicle id="flow_23_increasing_300_S_right.0" type="moto" depart="300.00" departLane="1" departPos="107.805" departSpeed="14.2483" speedFactor="1.1166" arrival="322.00">
        <route edges="S_in E_out"/>
    </vehicle>

    <vehicle id="flow_21_increasing_300_S_straight.0" type="moto" depart="300.00" departLane="1" departPos="88.3207" departSpeed="10.4988" speedFactor="0.8878" arrival="327.00">
        <route edges="S_in N_out"/>
    </vehicle>

    <vehicle id="flow_17_increasing_300_N_straight.0" type="moto" depart="300.00" departLane="1" departPos="109.8853" departSpeed="1.7533" speedFactor="0.8003" arrival="329.00">
        <route edges="N_in S_out"/>
    </vehicle>

    <vehicle id="flow_19_increasing_300_N_right.0" type="moto" depart="300.00" departLane="0" departPos="43.1808" departSpeed="3.3553" speedFactor="1.0682" arrival="330.00">
        <route edges="N_in W_out"/>
    </vehicle>

    <vehicle id="flow_32_increasing_300_W_uturn.0" type="moto" depart="300.00" departLane="0" departPos="178.6166" departSpeed="7.7412" speedFactor="1.2976" arrival="332.00">
        <route edges="W_in W_out"/>
    </vehicle>

    <vehicle id="flow_31_increasing_300_W_right.0" type="car" depart="300.00" departLane="1" departPos="109.812" departSpeed="0.1725" speedFactor="1.0648" arrival="333.00">
        <route edges="W_in S_out"/>
    </vehicle>

    <vehicle id="flow_9_increasing_0_E_straight.6" type="moto" depart="289.00" departLane="0" departPos="61.3216" departSpeed="6.3328" speedFactor="1.0203" arrival="334.00">
        <route edges="E_in W_out"/>
    </vehicle>

    <vehicle id="flow_27_increasing_300_E_right.0" type="moto" depart="300.00" departLane="1" departPos="111.5719" departSpeed="0.1108" speedFactor="1.0873" arrival="334.00">
        <route edges="E_in N_out"/>
    </vehicle>

    <vehicle id="flow_5_increasing_0_S_straight.6" type="moto" depart="299.00" departLane="0" departPos="69.4902" departSpeed="6.7874" speedFactor="1.0983" arrival="335.00">
        <route edges="W_in E_out"/>
    </vehicle>

    <vehicle id="flow_29_increasing_300_W_straight.0" type="moto" depart="300.00" departLane="0" departPos="36.1365" departSpeed="8.7502" speedFactor="1.0413" arrival="336.00">
        <route edges="W_in E_out"/>
    </vehicle>

    <vehicle id="flow_25_increasing_300_E_straight.0" type="moto" depart="300.00" departLane="1" departPos="142.1182" departSpeed="0.463" speedFactor="0.9618" arrival="338.00">
        <route edges="E_in W_out"/>
    </vehicle>

    <vehicle id="flow_30_increasing_300_W_left.0" type="moto" depart="300.00" departLane="1" departPos="20.793" departSpeed="5.3347" speedFactor="0.9730" arrival="341.00">
        <route edges="W_in N_out"/>
    </vehicle>

    <vehicle id="flow_24_increasing_300_S_uturn.0" type="car" depart="300.00" departLane="0" departPos="16.037" departSpeed="6.4129" speedFactor="1.1439" arrival="345.00">
        <route edges="S_in S_out"/>
    </vehicle>

    <vehicle id="flow_28_increasing_300_E_uturn.0" type="container" depart="300.00" departLane="0" departPos="150.3232" departSpeed="5.7009" speedFactor="0.9532" arrival="346.00">
        <route edges="E_in E_out"/>
    </vehicle>

    <vehicle id="flow_18_increasing_300_N_left.0" type="moto" depart="300.00" departLane="1" departPos="21.7404" departSpeed="11.6613" speedFactor="1.0626" arrival="348.00">
        <route edges="N_in E_out"/>
    </vehicle>

    <vehicle id="flow_20_increasing_300_N_uturn.0" type="moto" depart="300.00" departLane="0" departPos="60.8307" departSpeed="10.6473" speedFactor="0.8330" arrival="350.00">
        <route edges="N_in N_out"/>
    </vehicle>

    <vehicle id="flow_21_increasing_300_S_straight.1" type="moto" depart="338.00" departLane="1" departPos="57.3268" departSpeed="6.9315" speedFactor="1.1157" arrival="362.00">
        <route edges="S_in N_out"/>
    </vehicle>

    <vehicle id="flow_17_increasing_300_N_straight.1" type="car" depart="338.00" departLane="0" departPos="65.7387" departSpeed="2.6685" speedFactor="1.0212" arrival="365.00">
        <route edges="N_in S_out"/>
    </vehicle>

    <vehicle id="flow_29_increasing_300_W_straight.1" type="moto" depart="338.00" departLane="1" departPos="58.7528" departSpeed="11.1036" speedFactor="0.9645" arrival="371.00">
        <route edges="W_in E_out"/>
    </vehicle>

    <vehicle id="flow_25_increasing_300_E_straight.1" type="moto" depart="335.00" departLane="0" departPos="173.6034" departSpeed="2.5884" speedFactor="0.8391" arrival="373.00">
        <route edges="E_in W_out"/>
    </vehicle>

    <vehicle id="flow_26_increasing_300_E_left.0" type="moto" depart="300.00" departLane="1" departPos="22.6438" departSpeed="8.6894" speedFactor="0.9385" arrival="375.00">
        <route edges="E_in S_out"/>
    </vehicle>

    <vehicle id="flow_29_increasing_300_W_straight.2" type="moto" depart="375.00" departLane="0" departPos="174.1059" departSpeed="0.4334" speedFactor="0.9897" arrival="396.00">
        <route edges="W_in E_out"/>
    </vehicle>

    <vehicle id="flow_25_increasing_300_E_straight.2" type="bus" depart="370.00" departLane="0" departPos="2.521" departSpeed="5.5468" speedFactor="1.0917" arrival="401.00">
        <route edges="E_in W_out"/>
    </vehicle>

    <vehicle id="flow_31_increasing_300_W_right.1" type="car" depart="388.00" departLane="1" departPos="90.2975" departSpeed="7.2739" speedFactor="1.0323" arrival="413.00">
        <route edges="W_in S_out"/>
    </vehicle>

    <vehicle id="flow_27_increasing_300_E_right.1" type="truck" depart="387.00" departLane="1" departPos="103.2677" departSpeed="9.9808" speedFactor="0.9032" arrival="414.00">
        <route edges="E_in N_out"/>
    </vehicle>

    <vehicle id="flow_26_increasing_300_E_left.1" type="moto" depart="394.00" departLane="0" departPos="124.2821" departSpeed="14.1861" speedFactor="1.1421" arrival="414.00">
        <route edges="E_in S_out"/>
    </vehicle>

    <vehicle id="flow_30_increasing_300_W_left.1" type="truck" depart="395.00" departLane="0" departPos="140.1793" departSpeed="13.158" speedFactor="1.0325" arrival="416.00">
        <route edges="W_in N_out"/>
    </vehicle>

    <vehicle id="flow_21_increasing_300_S_straight.2" type="moto" depart="375.00" departLane="1" departPos="9.2851" departSpeed="9.2081" speedFactor="1.1571" arrival="418.00">
        <route edges="S_in N_out"/>
    </vehicle>

    <vehicle id="flow_23_increasing_300_S_right.1" type="moto" depart="391.00" departLane="1" departPos="40.9491" departSpeed="2.2174" speedFactor="1.0387" arrival="421.00">
        <route edges="S_in E_out"/>
    </vehicle>

    <vehicle id="flow_18_increasing_300_N_left.1" type="moto" depart="390.00" departLane="1" departPos="90.8186" departSpeed="11.3823" speedFactor="1.0281" arrival="423.00">
        <route edges="N_in E_out"/>
    </vehicle>

    <vehicle id="flow_19_increasing_300_N_right.1" type="moto" depart="393.00" departLane="0" departPos="45.7887" departSpeed="9.1133" speedFactor="1.0039" arrival="423.00">
        <route edges="N_in W_out"/>
    </vehicle>

    <vehicle id="flow_17_increasing_300_N_straight.2" type="truck" depart="376.00" departLane="1" departPos="53.9882" departSpeed="4.44" speedFactor="0.9315" arrival="424.00">
        <route edges="N_in S_out"/>
    </vehicle>

    <vehicle id="flow_22_increasing_300_S_left.1" type="moto" depart="390.00" departLane="1" departPos="168.3233" departSpeed="4.0903" speedFactor="0.8620" arrival="428.00">
        <route edges="S_in W_out"/>
    </vehicle>

    <vehicle id="flow_25_increasing_300_E_straight.3" type="moto" depart="404.00" departLane="0" departPos="174.2328" departSpeed="5.1549" speedFactor="1.0387" arrival="432.00">
        <route edges="E_in W_out"/>
    </vehicle>

    <vehicle id="flow_29_increasing_300_W_straight.3" type="moto" depart="412.00" departLane="0" departPos="88.8236" departSpeed="8.3719" speedFactor="1.0448" arrival="435.00">
        <route edges="W_in E_out"/>
    </vehicle>

    <vehicle id="flow_17_increasing_300_N_straight.3" type="truck" depart="414.00" departLane="1" departPos="100.3851" departSpeed="2.4984" speedFactor="0.9784" arrival="460.00">
        <route edges="N_in S_out"/>
    </vehicle>

    <vehicle id="flow_21_increasing_300_S_straight.3" type="truck" depart="412.00" departLane="0" departPos="151.3306" departSpeed="8.4329" speedFactor="0.8196" arrival="461.00">
        <route edges="S_in N_out"/>
    </vehicle>

    <vehicle id="flow_25_increasing_300_E_straight.4" type="moto" depart="439.00" departLane="1" departPos="175.5356" departSpeed="9.161" speedFactor="1.0140" arrival="468.00">
        <route edges="E_in W_out"/>
    </vehicle>

    <vehicle id="flow_29_increasing_300_W_straight.4" type="moto" depart="450.00" departLane="1" departPos="170.8427" departSpeed="4.2324" speedFactor="1.0047" arrival="469.00">
        <route edges="W_in E_out"/>
    </vehicle>

    <vehicle id="flow_17_increasing_300_N_straight.4" type="moto" depart="451.00" departLane="0" departPos="108.1488" departSpeed="10.3102" speedFactor="1.0699" arrival="491.00">
        <route edges="N_in S_out"/>
    </vehicle>

    <vehicle id="flow_21_increasing_300_S_straight.4" type="car" depart="449.00" departLane="1" departPos="95.9942" departSpeed="11.8937" speedFactor="0.9547" arrival="492.00">
        <route edges="S_in N_out"/>
    </vehicle>

    <vehicle id="flow_20_increasing_300_N_uturn.1" type="moto" depart="479.00" departLane="1" departPos="187.4776" departSpeed="0.0941" speedFactor="0.8642" arrival="500.00">
        <route edges="N_in N_out"/>
    </vehicle>

    <vehicle id="flow_27_increasing_300_E_right.2" type="moto" depart="473.00" departLane="0" departPos="172.0661" departSpeed="10.3443" speedFactor="1.1365" arrival="502.00">
        <route edges="E_in N_out"/>
    </vehicle>

    <vehicle id="flow_31_increasing_300_W_right.2" type="car" depart="476.00" departLane="1" departPos="168.8768" departSpeed="11.4074" speedFactor="1.1290" arrival="502.00">
        <route edges="W_in S_out"/>
    </vehicle>

    <vehicle id="flow_32_increasing_300_W_uturn.1" type="moto" depart="477.00" departLane="0" departPos="161.6079" departSpeed="1.2546" speedFactor="1.2552" arrival="502.00">
        <route edges="W_in W_out"/>
    </vehicle>

    <vehicle id="flow_25_increasing_300_E_straight.5" type="car" depart="474.00" departLane="0" departPos="3.1111" departSpeed="8.5204" speedFactor="1.0144" arrival="505.00">
        <route edges="E_in W_out"/>
    </vehicle>

    <vehicle id="flow_29_increasing_300_W_straight.5" type="car" depart="487.00" departLane="1" departPos="80.1718" departSpeed="11.5849" speedFactor="0.9957" arrival="512.00">
        <route edges="W_in E_out"/>
    </vehicle>

    <vehicle id="flow_19_increasing_300_N_right.2" type="moto" depart="485.00" departLane="0" departPos="154.6775" departSpeed="6.0902" speedFactor="1.2148" arrival="515.00">
        <route edges="N_in W_out"/>
    </vehicle>

    <vehicle id="flow_18_increasing_300_N_left.2" type="bus" depart="480.00" departLane="0" departPos="8.1725" departSpeed="3.4042" speedFactor="0.9819" arrival="518.00">
        <route edges="N_in E_out"/>
    </vehicle>

    <vehicle id="flow_22_increasing_300_S_left.2" type="moto" depart="480.00" departLane="1" departPos="133.5978" departSpeed="8.8084" speedFactor="0.9282" arrival="518.00">
        <route edges="S_in W_out"/>
    </vehicle>

    <vehicle id="flow_24_increasing_300_S_uturn.1" type="moto" depart="480.00" departLane="0" departPos="144.3932" departSpeed="3.3263" speedFactor="1.0856" arrival="518.00">
        <route edges="S_in S_out"/>
    </vehicle>

    <vehicle id="flow_23_increasing_300_S_right.2" type="moto" depart="482.00" departLane="1" departPos="49.5467" departSpeed="7.5052" speedFactor="0.9059" arrival="518.00">
        <route edges="S_in E_out"/>
    </vehicle>

    <vehicle id="flow_21_increasing_300_S_straight.5" type="bus" depart="486.00" departLane="1" departPos="97.1832" departSpeed="3.6423" speedFactor="0.9554" arrival="524.00">
        <route edges="S_in N_out"/>
    </vehicle>

    <vehicle id="flow_17_increasing_300_N_straight.5" type="moto" depart="489.00" departLane="0" departPos="11.4261" departSpeed="11.5729" speedFactor="0.8543" arrival="524.00">
        <route edges="N_in S_out"/>
    </vehicle>

    <vehicle id="flow_25_increasing_300_E_straight.6" type="moto" depart="508.00" departLane="1" departPos="161.9597" departSpeed="5.7422" speedFactor="1.1523" arrival="529.00">
        <route edges="E_in W_out"/>
    </vehicle>

    <vehicle id="flow_28_increasing_300_E_uturn.1" type="moto" depart="479.00" departLane="0" departPos="10.777" departSpeed="1.9174" speedFactor="0.9584" arrival="531.00">
        <route edges="E_in E_out"/>
    </vehicle>

    <vehicle id="flow_26_increasing_300_E_left.2" type="moto" depart="487.00" departLane="1" departPos="15.5808" departSpeed="1.0381" speedFactor="0.8917" arrival="533.00">
        <route edges="E_in S_out"/>
    </vehicle>

    <vehicle id="flow_30_increasing_300_W_left.2" type="moto" depart="490.00" departLane="0" departPos="22.6696" departSpeed="5.6467" speedFactor="0.7657" arrival="539.00">
        <route edges="W_in N_out"/>
    </vehicle>

    <vehicle id="flow_17_increasing_300_N_straight.6" type="moto" depart="527.00" departLane="0" departPos="187.7648" departSpeed="13.6977" speedFactor="1.1530" arrival="541.00">
        <route edges="N_in S_out"/>
    </vehicle>

    <vehicle id="flow_21_increasing_300_S_straight.6" type="moto" depart="523.00" departLane="0" departPos="44.9537" departSpeed="5.7718" speedFactor="0.9662" arrival="552.00">
        <route edges="S_in N_out"/>
    </vehicle>

    <vehicle id="flow_25_increasing_300_E_straight.7" type="moto" depart="543.00" departLane="0" departPos="116.7981" departSpeed="7.0512" speedFactor="0.9806" arrival="566.00">
        <route edges="E_in W_out"/>
    </vehicle>

    <vehicle id="flow_29_increasing_300_W_straight.6" type="truck" depart="524.00" departLane="0" departPos="184.0677" departSpeed="4.2657" speedFactor="0.8815" arrival="571.00">
        <route edges="W_in E_out"/>
    </vehicle>

    <vehicle id="flow_27_increasing_300_E_right.3" type="moto" depart="559.00" departLane="1" departPos="165.1863" departSpeed="6.3202" speedFactor="0.8416" arrival="583.00">
        <route edges="E_in N_out"/>
    </vehicle>

    <vehicle id="flow_21_increasing_300_S_straight.7" type="moto" depart="560.00" departLane="1" departPos="160.2411" departSpeed="4.0055" speedFactor="0.8756" arrival="591.00">
        <route edges="S_in N_out"/>
    </vehicle>

    <vehicle id="flow_17_increasing_300_N_straight.7" type="moto" depart="564.00" departLane="0" departPos="153.951" departSpeed="10.0227" speedFactor="0.9471" arrival="591.00">
        <route edges="N_in S_out"/>
    </vehicle>

    <vehicle id="flow_23_increasing_300_S_right.3" type="truck" depart="573.00" departLane="0" departPos="154.1317" departSpeed="11.1377" speedFactor="1.0167" arrival="594.00">
        <route edges="S_in E_out"/>
    </vehicle>

    <vehicle id="flow_18_increasing_300_N_left.3" type="bus" depart="569.00" departLane="0" departPos="122.1483" departSpeed="13.5004" speedFactor="1.0217" arrival="596.00">
        <route edges="N_in E_out"/>
    </vehicle>

    <vehicle id="flow_22_increasing_300_S_left.3" type="bus" depart="570.00" departLane="0" departPos="100.2317" departSpeed="9.7703" speedFactor="0.9363" arrival="599.00">
        <route edges="S_in W_out"/>
    </vehicle>

    <vehicle id="flow_29_increasing_300_W_straight.7" type="moto" depart="562.00" departLane="1" departPos="2.7138" departSpeed="8.5177" speedFactor="1.0747" arrival="601.00">
        <route edges="W_in E_out"/>
    </vehicle>

    <vehicle id="flow_31_increasing_300_W_right.3" type="truck" depart="564.00" departLane="0" departPos="9.9449" departSpeed="1.884" speedFactor="0.9700" arrival="602.00">
        <route edges="W_in S_out"/>
    </vehicle>
