<?xml version="1.0" encoding="UTF-8"?>

<!-- generated on 2025-12-09 00:47:32 by Eclipse SUMO sumo Version 1.18.0
<configuration xmlns:xsi="http://www.w3.org/2001/XMLSchema-instance" xsi:noNamespaceSchemaLocation="http://sumo.dlr.de/xsd/sumoConfiguration.xsd">

    <input>
        <net-file value="nets/120p4k/net.net.xml"/>
        <route-files value="nets/120p4k/route_temp_123_136228221793904_64131698.rou.xml"/>
    </input>

    <output>
        <summary-output value="result_ddqn_1.2_0.1/summary_ep_6.xml"/>
        <tripinfo-output value="result_ddqn_1.2_0.1/tripinfo_ep_6.xml"/>
        <vehroute-output value="result_ddqn_1.2_0.1/vehroute_ep_6.xml"/>
    </output>

    <time>
        <begin value="0"/>
    </time>

    <report>
        <verbose value="true"/>
        <no-warnings value="true"/>
        <no-step-log value="true"/>
    </report>

    <traci_server>
        <remote-port value="39905"/>
    </traci_server>

    <gui_only>
        <gui-settings-file value="nets/120p4k/gui-settings.xml"/>
        <quit-on-end value="true"/>
    </gui_only>

</configuration>
-->

<routes xmlns:xsi="http://www.w3.org/2001/XMLSchema-instance" xsi:noNamespaceSchemaLocation="http://sumo.dlr.de/xsd/routes_file.xsd">
    <vehicle id="flow_3_increasing_0_N_right.0" type="moto" depart="0.00" departLane="0" departPos="103.3842" departSpeed="3.8146" speedFactor="1.1088" arrival="24.00">
        <route edges="N_in W_out"/>
    </vehicle>

    <vehicle id="flow_8_increasing_0_S_uturn.0" type="moto" depart="0.00" departLane="0" departPos="120.1072" departSpeed="4.4837" speedFactor="1.0505" arrival="24.00">
        <route edges="S_in S_out"/>
    </vehicle>

    <vehicle id="flow_5_increasing_0_S_straight.0" type="moto" depart="0.00" departLane="1" departPos="107.3659" departSpeed="7.2113" speedFactor="1.1475" arrival="25.00">
        <route edges="S_in N_out"/>
    </vehicle>

    <vehicle id="flow_6_increasing_0_S_left.0" type="moto" depart="0.00" departLane="1" departPos="166.0107" departSpeed="0.7376" speedFactor="0.8806" arrival="25.00">
        <route edges="S_in W_out"/>
    </vehicle>

    <vehicle id="flow_2_increasing_0_N_left.0" type="moto" depart="0.00" departLane="1" departPos="8.2688" departSpeed="8.3291" speedFactor="1.0157" arrival="31.00">
        <route edges="S_in W_out"/>
    </vehicle>

    <vehicle id="flow_4_increasing_0_N_uturn.0" type="moto" depart="0.00" departLane="1" departPos="127.6015" departSpeed="0.0761" speedFactor="0.9074" arrival="32.00">
        <route edges="N_in N_out"/>
    </vehicle>

    <vehicle id="flow_9_increasing_0_E_straight.0" type="car" depart="0.00" departLane="0" departPos="168.2937" departSpeed="10.7269" speedFactor="0.9362" arrival="37.00">
        <route edges="E_in W_out"/>
    </vehicle>

    <vehicle id="flow_15_increasing_0_W_right.0" type="moto" depart="0.00" departLane="0" departPos="108.377" departSpeed="2.6276" speedFactor="0.8472" arrival="39.00">
        <route edges="W_in S_out"/>
    </vehicle>

    <vehicle id="flow_16_increasing_0_W_uturn.0" type="moto" depart="0.00" departLane="0" departPos="126.6766" departSpeed="11.7148" speedFactor="1.0383" arrival="39.00">
        <route edges="W_in W_out"/>
    </vehicle>

    <vehicle id="flow_14_increasing_0_W_left.0" type="moto" depart="0.00" departLane="1" departPos="182.8773" departSpeed="5.6108" speedFactor="1.0101" arrival="40.00">
        <route edges="W_in N_out"/>
    </vehicle>

    <vehicle id="flow_11_increasing_0_E_right.0" type="bus" depart="0.00" departLane="1" departPos="144.9496" departSpeed="4.0187" speedFactor="0.9581" arrival="41.00">
        <route edges="E_in N_out"/>
    </vehicle>

    <vehicle id="flow_13_increasing_0_W_straight.0" type="bus" depart="0.00" departLane="0" departPos="24.5296" departSpeed="3.9683" speedFactor="0.8617" arrival="42.00">
        <route edges="W_in E_out"/>
    </vehicle>

    <vehicle id="flow_10_increasing_0_E_left.0" type="car" depart="0.00" departLane="0" departPos="44.8816" departSpeed="8.1909" speedFactor="1.0826" arrival="43.00">
        <route edges="E_in S_out"/>
    </vehicle>

    <vehicle id="flow_12_increasing_0_E_uturn.0" type="moto" depart="0.00" departLane="0" departPos="5.6544" departSpeed="13.7593" speedFactor="1.0348" arrival="44.00">
        <route edges="E_in E_out"/>
    </vehicle>

    <vehicle id="flow_7_increasing_0_S_right.0" type="bus" depart="0.00" departLane="0" departPos="8.759" departSpeed="8.4712" speedFactor="0.8915" arrival="53.00">
        <route edges="S_in E_out"/>
    </vehicle>

    <vehicle id="flow_1_increasing_0_N_straight.0" type="truck" depart="0.00" departLane="0" departPos="8.6229" departSpeed="8.5053" speedFactor="0.8588" arrival="55.00">
        <route edges="N_in S_out"/>
    </vehicle>

    <vehicle id="flow_9_increasing_0_E_straight.1" type="moto" depart="49.00" departLane="0" departPos="131.129" departSpeed="9.5396" speedFactor="1.1582" arrival="67.00">
        <route edges="E_in W_out"/>
    </vehicle>

    <vehicle id="flow_1_increasing_0_N_straight.1" type="moto" depart="53.00" departLane="1" departPos="121.6549" departSpeed="2.9213" speedFactor="1.1462" arrival="74.00">
        <route edges="N_in S_out"/>
    </vehicle>

    <vehicle id="flow_5_increasing_0_S_straight.1" type="moto" depart="50.00" departLane="1" departPos="58.3562" departSpeed="11.6446" speedFactor="0.8727" arrival="80.00">
        <route edges="S_in N_out"/>
    </vehicle>

    <vehicle id="flow_13_increasing_0_W_straight.1" type="moto" depart="51.00" departLane="1" departPos="31.9285" departSpeed="9.2811" speedFactor="1.1853" arrival="87.00">
        <route edges="W_in E_out"/>
    </vehicle>

    <vehicle id="flow_5_increasing_0_S_straight.2" type="moto" depart="100.00" departLane="1" departPos="12.6982" departSpeed="12.4143" speedFactor="0.9623" arrival="131.00">
        <route edges="S_in N_out"/>
    </vehicle>

    <vehicle id="flow_1_increasing_0_N_straight.2" type="moto" depart="105.00" departLane="1" departPos="107.5311" departSpeed="1.1094" speedFactor="0.9279" arrival="131.00">
        <route edges="N_in S_out"/>
    </vehicle>

    <vehicle id="flow_9_increasing_0_E_straight.2" type="moto" depart="97.00" departLane="1" departPos="52.8684" departSpeed="0.3845" speedFactor="0.9938" arrival="151.00">
        <route edges="E_in W_out"/>
    </vehicle>

    <vehicle id="flow_15_increasing_0_W_right.1" type="moto" depart="123.00" departLane="1" departPos="128.6773" departSpeed="3.0596" speedFactor="1.0365" arrival="153.00">
        <route edges="W_in S_out"/>
    </vehicle>

    <vehicle id="flow_14_increasing_0_W_left.1" type="moto" depart="125.00" departLane="1" departPos="110.9191" departSpeed="11.9947" speedFactor="1.0453" arrival="153.00">
        <route edges="W_in N_out"/>
    </vehicle>

    <vehicle id="flow_13_increasing_0_W_straight.2" type="truck" depart="102.00" departLane="1" departPos="59.5081" departSpeed="13.3195" speedFactor="0.9657" arrival="154.00">
        <route edges="W_in E_out"/>
    </vehicle>

    <vehicle id="flow_10_increasing_0_E_left.1" type="car" depart="127.00" departLane="1" departPos="185.2056" departSpeed="3.9115" speedFactor="0.7706" arrival="160.00">
        <route edges="E_in S_out"/>
    </vehicle>

    <vehicle id="flow_6_increasing_0_S_left.1" type="moto" depart="125.00" departLane="0" departPos="73.8966" departSpeed="7.2421" speedFactor="1.0788" arrival="162.00">
        <route edges="S_in W_out"/>
    </vehicle>

    <vehicle id="flow_2_increasing_0_N_left.1" type="moto" depart="122.00" departLane="0" departPos="8.8817" departSpeed="2.8196" speedFactor="1.1228" arrival="163.00">
        <route edges="S_in W_out"/>
    </vehicle>

    <vehicle id="flow_5_increasing_0_S_straight.3" type="moto" depart="150.00" departLane="1" departPos="108.7646" departSpeed="13.0742" speedFactor="1.0764" arrival="171.00">
        <route edges="S_in N_out"/>
    </vehicle>

    <vehicle id="flow_7_increasing_0_S_right.1" type="container" depart="122.00" departLane="1" departPos="66.71" departSpeed="7.8717" speedFactor="0.7845" arrival="172.00">
        <route edges="S_in E_out"/>
    </vehicle>

    <vehicle id="flow_3_increasing_0_N_right.1" type="container" depart="131.00" departLane="1" departPos="175.3621" departSpeed="7.2456" speedFactor="0.9146" arrival="172.00">
        <route edges="N_in W_out"/>
    </vehicle>

    <vehicle id="flow_13_increasing_0_W_straight.3" type="moto" depart="152.00" departLane="1" departPos="77.9408" departSpeed="4.7411" speedFactor="1.2027" arrival="185.00">
        <route edges="W_in E_out"/>
    </vehicle>

    <vehicle id="flow_11_increasing_0_E_right.1" type="moto" depart="127.00" departLane="0" departPos="19.8546" departSpeed="3.7056" speedFactor="0.8806" arrival="187.00">
        <route edges="E_in N_out"/>
    </vehicle>

    <vehicle id="flow_9_increasing_0_E_straight.3" type="truck" depart="145.00" departLane="0" departPos="134.7579" departSpeed="5.0315" speedFactor="0.8515" arrival="193.00">
        <route edges="E_in W_out"/>
    </vehicle>

    <vehicle id="flow_1_increasing_0_N_straight.3" type="moto" depart="158.00" departLane="0" departPos="19.2493" departSpeed="10.2819" speedFactor="1.0575" arrival="199.00">
        <route edges="N_in S_out"/>
    </vehicle>

    <vehicle id="flow_9_increasing_0_E_straight.4" type="bus" depart="193.00" departLane="0" departPos="148.0778" departSpeed="8.7623" speedFactor="0.9525" arrival="213.00">
        <route edges="E_in W_out"/>
    </vehicle>

    <vehicle id="flow_13_increasing_0_W_straight.4" type="truck" depart="203.00" departLane="0" departPos="167.2268" departSpeed="1.7052" speedFactor="0.8691" arrival="228.00">
        <route edges="W_in E_out"/>
    </vehicle>

    <vehicle id="flow_5_increasing_0_S_straight.4" type="container" depart="200.00" departLane="1" departPos="23.5668" departSpeed="9.6088" speedFactor="0.9706" arrival="241.00">
        <route edges="S_in N_out"/>
    </vehicle>

    <vehicle id="flow_1_increasing_0_N_straight.4" type="car" depart="210.00" departLane="0" departPos="8.0759" departSpeed="6.4168" speedFactor="0.9617" arrival="242.00">
        <route edges="N_in S_out"/>
    </vehicle>

    <vehicle id="flow_4_increasing_0_N_uturn.1" type="moto" depart="240.00" departLane="0" departPos="185.4693" departSpeed="4.1297" speedFactor="1.0283" arrival="261.00">
        <route edges="N_in N_out"/>
    </vehicle>

    <vehicle id="flow_5_increasing_0_S_straight.5" type="moto" depart="249.00" departLane="1" departPos="168.2148" departSpeed="12.7817" speedFactor="0.9374" arrival="268.00">
        <route edges="S_in N_out"/>
    </vehicle>

    <vehicle id="flow_7_increasing_0_S_right.2" type="car" depart="244.00" departLane="1" departPos="108.7048" departSpeed="8.1312" speedFactor="0.9870" arrival="269.00">
        <route edges="S_in E_out"/>
    </vehicle>

    <vehicle id="flow_2_increasing_0_N_left.2" type="container" depart="244.00" departLane="0" departPos="71.9448" departSpeed="3.463" speedFactor="0.8985" arrival="281.00">
        <route edges="S_in W_out"/>
    </vehicle>

    <vehicle id="flow_16_increasing_0_W_uturn.1" type="moto" depart="243.00" departLane="0" departPos="81.6907" departSpeed="10.5402" speedFactor="1.1432" arrival="284.00">
        <route edges="W_in W_out"/>
    </vehicle>

    <vehicle id="flow_15_increasing_0_W_right.2" type="moto" depart="246.00" departLane="0" departPos="121.5569" departSpeed="11.3311" speedFactor="0.9517" arrival="284.00">
        <route edges="W_in S_out"/>
    </vehicle>

    <vehicle id="flow_9_increasing_0_E_straight.5" type="moto" depart="241.00" departLane="1" departPos="171.4793" departSpeed="2.1268" speedFactor="0.9964" arrival="285.00">
        <route edges="E_in W_out"/>
    </vehicle>

    <vehicle id="flow_13_increasing_0_W_straight.5" type="moto" depart="253.00" departLane="1" departPos="124.8757" departSpeed="0.0127" speedFactor="1.0668" arrival="285.00">
        <route edges="W_in E_out"/>
    </vehicle>

    <vehicle id="flow_11_increasing_0_E_right.2" type="moto" depart="254.00" departLane="1" departPos="21.6793" departSpeed="5.9481" speedFactor="1.0390" arrival="285.00">
        <route edges="E_in N_out"/>
    </vehicle>

    <vehicle id="flow_12_increasing_0_E_uturn.1" type="moto" depart="247.00" departLane="0" departPos="104.1356" departSpeed="11.6643" speedFactor="0.8882" arrival="286.00">
        <route edges="E_in E_out"/>
    </vehicle>

    <vehicle id="flow_14_increasing_0_W_left.2" type="car" depart="249.00" departLane="1" departPos="89.1662" departSpeed="10.2919" speedFactor="0.9279" arrival="287.00">
        <route edges="W_in N_out"/>
    </vehicle>

    <vehicle id="flow_10_increasing_0_E_left.2" type="moto" depart="254.00" departLane="1" departPos="92.2234" departSpeed="0.1851" speedFactor="1.1413" arrival="288.00">
        <route edges="E_in S_out"/>
    </vehicle>

    <vehicle id="flow_1_increasing_0_N_straight.5" type="moto" depart="262.00" departLane="1" departPos="177.4982" departSpeed="7.4822" speedFactor="1.1043" arrival="296.00">
        <route edges="N_in S_out"/>
    </vehicle>

    <vehicle id="flow_3_increasing_0_N_right.2" type="moto" depart="261.00" departLane="1" departPos="74.602" departSpeed="10.2728" speedFactor="0.9020" arrival="298.00">
        <route edges="N_in W_out"/>
    </vehicle>

    <vehicle id="flow_6_increasing_0_S_left.2" type="moto" depart="249.00" departLane="0" departPos="31.7588" departSpeed="12.8895" speedFactor="1.0265" arrival="300.00">
        <route edges="S_in W_out"/>
    </vehicle>

    <vehicle id="flow_8_increasing_0_S_uturn.1" type="car" depart="264.00" departLane="1" departPos="159.9604" departSpeed="5.7746" speedFactor="0.8975" arrival="303.00">
        <route edges="S_in S_out"/>
    </vehicle>

    <vehicle id="flow_9_increasing_0_E_straight.6" type="moto" depart="289.00" departLane="1" departPos="29.0743" departSpeed="2.9429" speedFactor="1.0203" arrival="319.00">
        <route edges="E_in W_out"/>
    </vehicle>

    <vehicle id="flow_29_increasing_300_W_straight.0" type="moto" depart="300.00" departLane="0" departPos="114.6211" departSpeed="10.6968" speedFactor="1.0413" arrival="321.00">
        <route edges="W_in E_out"/>
    </vehicle>

    <vehicle id="flow_26_increasing_300_E_left.0" type="moto" depart="300.00" departLane="1" departPos="126.2936" departSpeed="9.6674" speedFactor="0.9385" arrival="326.00">
        <route edges="E_in S_out"/>
    </vehicle>

    <vehicle id="flow_30_increasing_300_W_left.0" type="moto" depart="300.00" departLane="0" departPos="74.7856" departSpeed="13.2852" speedFactor="0.9730" arrival="328.00">
        <route edges="W_in N_out"/>
    </vehicle>

    <vehicle id="flow_32_increasing_300_W_uturn.0" type="moto" depart="300.00" departLane="1" departPos="103.4641" departSpeed="3.6855" speedFactor="1.2976" arrival="331.00">
        <route edges="N_in N_out"/>
    </vehicle>

    <vehicle id="flow_5_increasing_0_S_straight.6" type="moto" depart="299.00" departLane="1" departPos="137.1078" departSpeed="4.9375" speedFactor="1.0983" arrival="332.00">
        <route edges="S_in N_out"/>
    </vehicle>

    <vehicle id="flow_24_increasing_300_S_uturn.0" type="car" depart="300.00" departLane="1" departPos="76.4696" departSpeed="9.0407" speedFactor="1.1439" arrival="332.00">
        <route edges="S_in S_out"/>
    </vehicle>

    <vehicle id="flow_19_increasing_300_N_right.0" type="moto" depart="300.00" departLane="0" departPos="18.5245" departSpeed="1.7025" speedFactor="1.0682" arrival="333.00">
        <route edges="N_in W_out"/>
    </vehicle>

    <vehicle id="flow_22_increasing_300_S_left.0" type="moto" depart="300.00" departLane="0" departPos="36.1232" departSpeed="7.4532" speedFactor="1.1705" arrival="333.00">
        <route edges="S_in W_out"/>
    </vehicle>

    <vehicle id="flow_23_increasing_300_S_right.0" type="moto" depart="300.00" departLane="1" departPos="41.8299" departSpeed="2.7644" speedFactor="1.1166" arrival="333.00">
        <route edges="S_in E_out"/>
    </vehicle>

    <vehicle id="flow_17_increasing_300_N_straight.0" type="moto" depart="300.00" departLane="1" departPos="152.0111" departSpeed="4.0771" speedFactor="0.8003" arrival="337.00">
        <route edges="N_in S_out"/>
    </vehicle>

    <vehicle id="flow_21_increasing_300_S_straight.0" type="moto" depart="300.00" departLane="1" departPos="47.4954" departSpeed="3.9593" speedFactor="0.8878" arrival="338.00">
        <route edges="S_in N_out"/>
    </vehicle>

    <vehicle id="flow_18_increasing_300_N_left.0" type="moto" depart="300.00" departLane="0" departPos="24.5526" departSpeed="8.5602" speedFactor="1.0626" arrival="339.00">
        <route edges="N_in E_out"/>
    </vehicle>

    <vehicle id="flow_20_increasing_300_N_uturn.0" type="moto" depart="300.00" departLane="1" departPos="37.0366" departSpeed="2.637" speedFactor="0.8330" arrival="341.00">
        <route edges="N_in N_out"/>
    </vehicle>

    <vehicle id="flow_31_increasing_300_W_right.0" type="car" depart="300.00" departLane="1" departPos="2.2093" departSpeed="7.8196" speedFactor="1.0648" arrival="345.00">
        <route edges="W_in S_out"/>
    </vehicle>

    <vehicle id="flow_27_increasing_300_E_right.0" type="moto" depart="300.00" departLane="0" departPos="1.3904" departSpeed="4.9446" speedFactor="1.0873" arrival="346.00">
        <route edges="E_in N_out"/>
    </vehicle>

    <vehicle id="flow_25_increasing_300_E_straight.0" type="moto" depart="300.00" departLane="0" departPos="6.5659" departSpeed="7.6147" speedFactor="0.9618" arrival="347.00">
        <route edges="E_in W_out"/>
    </vehicle>

    <vehicle id="flow_28_increasing_300_E_uturn.0" type="container" depart="300.00" departLane="0" departPos="81.5805" departSpeed="1.1271" speedFactor="0.9532" arrival="352.00">
        <route edges="E_in E_out"/>
    </vehicle>

    <vehicle id="flow_21_increasing_300_S_straight.1" type="moto" depart="338.00" departLane="1" departPos="84.7431" departSpeed="4.0987" speedFactor="1.1157" arrival="361.00">
        <route edges="S_in N_out"/>
    </vehicle>

    <vehicle id="flow_17_increasing_300_N_straight.1" type="car" depart="338.00" departLane="0" departPos="35.6434" departSpeed="3.2788" speedFactor="1.0212" arrival="367.00">
        <route edges="N_in S_out"/>
    </vehicle>

    <vehicle id="flow_29_increasing_300_W_straight.1" type="moto" depart="338.00" departLane="0" departPos="157.0309" departSpeed="10.2025" speedFactor="0.9645" arrival="383.00">
        <route edges="W_in E_out"/>
    </vehicle>

    <vehicle id="flow_25_increasing_300_E_straight.1" type="moto" depart="335.00" departLane="1" departPos="42.0768" departSpeed="10.5538" speedFactor="0.8391" arrival="385.00">
        <route edges="E_in W_out"/>
    </vehicle>

    <vehicle id="flow_25_increasing_300_E_straight.2" type="bus" depart="370.00" departLane="1" departPos="69.3051" departSpeed="14.2261" speedFactor="1.0917" arrival="393.00">
        <route edges="E_in W_out"/>
    </vehicle>

    <vehicle id="flow_21_increasing_300_S_straight.2" type="moto" depart="375.00" departLane="1" departPos="109.1161" departSpeed="3.3873" speedFactor="1.1571" arrival="404.00">
        <route edges="S_in N_out"/>
    </vehicle>

    <vehicle id="flow_17_increasing_300_N_straight.2" type="truck" depart="376.00" departLane="0" departPos="65.0172" departSpeed="2.6148" speedFactor="0.9315" arrival="407.00">
        <route edges="N_in S_out"/>
    </vehicle>

    <vehicle id="flow_18_increasing_300_N_left.1" type="moto" depart="390.00" departLane="0" departPos="151.0147" departSpeed="10.0633" speedFactor="1.0281" arrival="410.00">
        <route edges="N_in E_out"/>
    </vehicle>

    <vehicle id="flow_29_increasing_300_W_straight.2" type="moto" depart="375.00" departLane="1" departPos="5.9732" departSpeed="0.4338" speedFactor="0.9897" arrival="418.00">
        <route edges="W_in E_out"/>
    </vehicle>

    <vehicle id="flow_30_increasing_300_W_left.1" type="truck" depart="395.00" departLane="1" departPos="173.8291" departSpeed="0.6963" speedFactor="1.0325" arrival="418.00">
        <route edges="W_in N_out"/>
    </vehicle>

    <vehicle id="flow_31_increasing_300_W_right.1" type="car" depart="388.00" departLane="0" departPos="96.1141" departSpeed="8.3736" speedFactor="1.0323" arrival="419.00">
        <route edges="W_in S_out"/>
    </vehicle>

    <vehicle id="flow_26_increasing_300_E_left.1" type="moto" depart="394.00" departLane="0" departPos="169.4272" departSpeed="4.7712" speedFactor="1.1421" arrival="420.00">
        <route edges="E_in S_out"/>
    </vehicle>

    <vehicle id="flow_27_increasing_300_E_right.1" type="truck" depart="387.00" departLane="1" departPos="150.7313" departSpeed="0.4965" speedFactor="0.9032" arrival="422.00">
        <route edges="E_in N_out"/>
    </vehicle>

    <vehicle id="flow_23_increasing_300_S_right.1" type="moto" depart="391.00" departLane="0" departPos="29.1188" departSpeed="4.2369" speedFactor="1.0387" arrival="430.00">
        <route edges="S_in E_out"/>
    </vehicle>

    <vehicle id="flow_19_increasing_300_N_right.1" type="moto" depart="393.00" departLane="1" departPos="123.8246" departSpeed="4.4525" speedFactor="1.0039" arrival="430.00">
        <route edges="N_in W_out"/>
    </vehicle>

    <vehicle id="flow_22_increasing_300_S_left.1" type="moto" depart="390.00" departLane="1" departPos="64.7255" departSpeed="4.6123" speedFactor="0.8620" arrival="434.00">
        <route edges="S_in W_out"/>
    </vehicle>

    <vehicle id="flow_21_increasing_300_S_straight.3" type="truck" depart="412.00" departLane="1" departPos="140.3456" departSpeed="8.8216" speedFactor="0.8196" arrival="436.00">
        <route edges="S_in N_out"/>
    </vehicle>

    <vehicle id="flow_17_increasing_300_N_straight.3" type="truck" depart="414.00" departLane="0" departPos="34.8311" departSpeed="5.395" speedFactor="0.9784" arrival="444.00">
        <route edges="N_in S_out"/>
    </vehicle>

    <vehicle id="flow_25_increasing_300_E_straight.3" type="moto" depart="404.00" departLane="1" departPos="67.694" departSpeed="0.1602" speedFactor="1.0387" arrival="454.00">
        <route edges="E_in W_out"/>
    </vehicle>

    <vehicle id="flow_29_increasing_300_W_straight.3" type="moto" depart="412.00" departLane="0" departPos="109.2982" departSpeed="0.3866" speedFactor="1.0448" arrival="454.00">
        <route edges="W_in E_out"/>
    </vehicle>

    <vehicle id="flow_25_increasing_300_E_straight.4" type="moto" depart="439.00" departLane="0" departPos="123.2337" departSpeed="11.8848" speedFactor="1.0140" arrival="460.00">
        <route edges="E_in W_out"/>
    </vehicle>

    <vehicle id="flow_17_increasing_300_N_straight.4" type="moto" depart="451.00" departLane="0" departPos="131.4461" departSpeed="14.1894" speedFactor="1.0699" arrival="476.00">
        <route edges="N_in S_out"/>
    </vehicle>

    <vehicle id="flow_21_increasing_300_S_straight.4" type="car" depart="449.00" departLane="1" departPos="169.9316" departSpeed="3.1927" speedFactor="0.9547" arrival="478.00">
        <route edges="S_in N_out"/>
    </vehicle>

    <vehicle id="flow_27_increasing_300_E_right.2" type="moto" depart="473.00" departLane="0" departPos="184.7562" departSpeed="5.1742" speedFactor="1.1365" arrival="489.00">
        <route edges="E_in N_out"/>
    </vehicle>

    <vehicle id="flow_29_increasing_300_W_straight.4" type="moto" depart="450.00" departLane="0" departPos="57.4616" departSpeed="5.6812" speedFactor="1.0047" arrival="490.00">
        <route edges="W_in E_out"/>
    </vehicle>

    <vehicle id="flow_31_increasing_300_W_right.2" type="car" depart="476.00" departLane="1" departPos="181.5712" departSpeed="6.2639" speedFactor="1.1290" arrival="493.00">
        <route edges="W_in S_out"/>
    </vehicle>

    <vehicle id="flow_25_increasing_300_E_straight.5" type="car" depart="474.00" departLane="0" departPos="114.5714" departSpeed="11.139" speedFactor="1.0144" arrival="496.00">
        <route edges="E_in W_out"/>
    </vehicle>

    <vehicle id="flow_24_increasing_300_S_uturn.1" type="moto" depart="480.00" departLane="1" departPos="170.5857" departSpeed="10.8378" speedFactor="1.0856" arrival="501.00">
        <route edges="S_in S_out"/>
    </vehicle>

    <vehicle id="flow_22_increasing_300_S_left.2" type="moto" depart="480.00" departLane="0" departPos="169.1917" departSpeed="9.0911" speedFactor="0.9282" arrival="507.00">
        <route edges="S_in W_out"/>
    </vehicle>

    <vehicle id="flow_23_increasing_300_S_right.2" type="moto" depart="482.00" departLane="0" departPos="128.7404" departSpeed="3.2906" speedFactor="0.9059" arrival="508.00">
        <route edges="S_in E_out"/>
    </vehicle>

    <vehicle id="flow_17_increasing_300_N_straight.5" type="moto" depart="489.00" departLane="1" departPos="167.1176" departSpeed="0.7156" speedFactor="0.8543" arrival="512.00">
        <route edges="N_in S_out"/>
    </vehicle>

    <vehicle id="flow_29_increasing_300_W_straight.5" type="car" depart="487.00" departLane="0" departPos="170.7684" departSpeed="5.8523" speedFactor="0.9957" arrival="516.00">
        <route edges="W_in E_out"/>
    </vehicle>

    <vehicle id="flow_28_increasing_300_E_uturn.1" type="moto" depart="479.00" departLane="0" departPos="27.2886" departSpeed="11.3942" speedFactor="0.9584" arrival="517.00">
        <route edges="E_in E_out"/>
    </vehicle>

    <vehicle id="flow_26_increasing_300_E_left.2" type="moto" depart="487.00" departLane="1" departPos="38.4375" departSpeed="1.0186" speedFactor="0.8917" arrival="522.00">
        <route edges="E_in S_out"/>
    </vehicle>

    <vehicle id="flow_30_increasing_300_W_left.2" type="moto" depart="490.00" departLane="0" departPos="98.6919" departSpeed="1.2726" speedFactor="0.7657" arrival="523.00">
        <route edges="W_in N_out"/>
    </vehicle>

    <vehicle id="flow_19_increasing_300_N_right.2" type="moto" depart="485.00" departLane="0" departPos="28.3376" departSpeed="13.053" speedFactor="1.2148" arrival="527.00">
        <route edges="N_in W_out"/>
    </vehicle>

    <vehicle id="flow_21_increasing_300_S_straight.5" type="bus" depart="486.00" departLane="1" departPos="21.3277" departSpeed="6.807" speedFactor="0.9554" arrival="534.00">
        <route edges="S_in N_out"/>
    </vehicle>

    <vehicle id="flow_32_increasing_300_W_uturn.1" type="moto" depart="477.00" departLane="0" departPos="14.8665" departSpeed="5.1447" speedFactor="1.2552" arrival="540.00">
        <route edges="N_in N_out"/>
    </vehicle>

    <vehicle id="flow_18_increasing_300_N_left.2" type="bus" depart="480.00" departLane="1" departPos="102.4537" departSpeed="0.8611" speedFactor="0.9819" arrival="541.00">
        <route edges="N_in E_out"/>
    </vehicle>

    <vehicle id="flow_20_increasing_300_N_uturn.1" type="moto" depart="479.00" departLane="1" departPos="1.4852" departSpeed="4.1913" speedFactor="0.8642" arrival="545.00">
        <route edges="N_in N_out"/>
    </vehicle>

    <vehicle id="flow_25_increasing_300_E_straight.6" type="moto" depart="508.00" departLane="1" departPos="50.8725" departSpeed="13.6675" speedFactor="1.1523" arrival="550.00">
        <route edges="E_in W_out"/>
    </vehicle>

    <vehicle id="flow_29_increasing_300_W_straight.6" type="truck" depart="524.00" departLane="0" departPos="114.397" departSpeed="11.8953" speedFactor="0.8815" arrival="556.00">
        <route edges="W_in E_out"/>
    </vehicle>

    <vehicle id="flow_17_increasing_300_N_straight.6" type="moto" depart="527.00" departLane="1" departPos="120.4896" departSpeed="15.8451" speedFactor="1.1530" arrival="564.00">
        <route edges="N_in S_out"/>
    </vehicle>

    <vehicle id="flow_21_increasing_300_S_straight.6" type="moto" depart="523.00" departLane="1" departPos="43.1771" departSpeed="3.1843" speedFactor="0.9662" arrival="566.00">
        <route edges="S_in N_out"/>
    </vehicle>

    <vehicle id="flow_25_increasing_300_E_straight.7" type="moto" depart="543.00" departLane="1" departPos="0.9771" departSpeed="8.3966" speedFactor="0.9806" arrival="588.00">
        <route edges="E_in W_out"/>
    </vehicle>

    <vehicle id="flow_31_increasing_300_W_right.3" type="truck" depart="564.00" departLane="0" departPos="184.144" departSpeed="0.7072" speedFactor="0.9700" arrival="591.00">
        <route edges="W_in S_out"/>
    </vehicle>

    <vehicle id="flow_27_increasing_300_E_right.3" type="moto" depart="559.00" departLane="1" departPos="138.898" departSpeed="10.1919" speedFactor="0.8416" arrival="592.00">
        <route edges="E_in N_out"/>
    </vehicle>

    <vehicle id="flow_29_increasing_300_W_straight.7" type="moto" depart="562.00" departLane="1" departPos="22.618" departSpeed="0.2138" speedFactor="1.0747" arrival="592.00">
        <route edges="W_in E_out"/>
    </vehicle>

    <vehicle id="flow_17_increasing_300_N_straight.7" type="moto" depart="564.00" departLane="0" departPos="7.5649" departSpeed="10.6894" speedFactor="0.9471" arrival="602.00">
        <route edges="N_in S_out"/>
    </vehicle>

    <vehicle id="flow_21_increasing_300_S_straight.7" type="moto" depart="560.00" departLane="0" departPos="27.7577" departSpeed="10.2862" speedFactor="0.8756" arrival="603.00">
        <route edges="S_in N_out"/>
    </vehicle>

    <vehicle id="flow_23_increasing_300_S_right.3" type="truck" depart="573.00" departLane="1" departPos="80.4314" departSpeed="11.4884" speedFactor="1.0167" arrival="604.00">
        <route edges="S_in E_out"/>
    </vehicle>

    <vehicle id="flow_19_increasing_300_N_right.3" type="truck" depart="577.00" departLane="0" departPos="99.1978" departSpeed="6.6616" speedFactor="0.9234" arrival="606.00">
        <route edges="N_in W_out"/>
    </vehicle>

    <vehicle id="flow_22_increasing_300_S_left.3" type="bus" depart="570.00" departLane="0" departPos="39.6761" departSpeed="6.8801" speedFactor="0.9363" arrival="608.00">
        <route edges="S_in W_out"/>
    </vehicle>
