<?xml version="1.0" encoding="UTF-8"?>

<!-- generated on 2025-12-20T02:55:27.273856+07:00 by Eclipse SUMO GUI 1.25.0
<sumoConfiguration xmlns:xsi="http://www.w3.org/2001/XMLSchema-instance" xsi:noNamespaceSchemaLocation="http://sumo.dlr.de/xsd/sumoConfiguration.xsd">

    <input>
        <net-file value="nets/demo/net.net.xml"/>
        <route-files value="nets/demo/route_60p2k.rou.xml"/>
    </input>

    <output>
        <summary-output value="result_test/e\summary_ep_1.xml"/>
        <tripinfo-output value="result_test/e\tripinfo_ep_1.xml"/>
        <vehroute-output value="result_test/e\vehroute_ep_1.xml"/>
    </output>

    <time>
        <begin value="0"/>
        <step-length value="1.0"/>
    </time>

    <processing>
        <scale value="1.0"/>
        <time-to-teleport value="600"/>
    </processing>

    <report>
        <verbose value="true"/>
    </report>

    <traci_server>
        <remote-port value="62141"/>
    </traci_server>

    <gui_only>
        <gui-settings-file value="nets/demo/gui-settings.xml"/>
        <start value="true"/>
        <delay value="150"/>
    </gui_only>

</sumoConfiguration>
-->

<tripinfos xmlns:xsi="http://www.w3.org/2001/XMLSchema-instance" xsi:noNamespaceSchemaLocation="http://sumo.dlr.de/xsd/tripinfo_file.xsd">
    <tripinfo id="flow_flatten_r_S_to_E.0" depart="0.00" departLane="S_in_0" departPos="168.29" departSpeed="12.04" departDelay="0.00" arrival="19.00" arrivalLane="E_out_0" arrivalPos="189.60" arrivalSpeed="13.80" duration="19.00" routeLength="219.94" waitingTime="0.00" waitingCount="0" stopTime="0.00" timeLoss="2.80" rerouteNo="0" devices="vehroute_flow_flatten_r_S_to_E.0 tripinfo_flow_flatten_r_S_to_E.0" vType="moto" speedFactor="1.05" vaporized=""/>
    <tripinfo id="flow_flatten_r_N_to_N.0" depart="0.00" departLane="N_in_1" departPos="166.01" departSpeed="0.96" departDelay="0.00" arrival="21.00" arrivalLane="N_out_1" arrivalPos="189.60" arrivalSpeed="15.54" duration="21.00" routeLength="217.86" waitingTime="0.00" waitingCount="0" stopTime="0.00" timeLoss="5.82" rerouteNo="0" devices="vehroute_flow_flatten_r_N_to_N.0 tripinfo_flow_flatten_r_N_to_N.0" vType="moto" speedFactor="1.15" vaporized=""/>
    <tripinfo id="flow_flatten_r_S_to_S.0" depart="0.00" departLane="S_in_1" departPos="144.95" departSpeed="4.26" departDelay="0.00" arrival="26.00" arrivalLane="S_out_1" arrivalPos="189.60" arrivalSpeed="14.08" duration="26.00" routeLength="238.92" waitingTime="0.00" waitingCount="0" stopTime="0.00" timeLoss="7.28" rerouteNo="0" devices="vehroute_flow_flatten_r_S_to_S.0 tripinfo_flow_flatten_r_S_to_S.0" vType="truck" speedFactor="1.02" vaporized=""/>
    <tripinfo id="flow_flatten_r_S_to_N.1" depart="11.00" departLane="S_in_1" departPos="182.00" departSpeed="14.96" departDelay="0.40" arrival="26.00" arrivalLane="N_out_1" arrivalPos="189.60" arrivalSpeed="15.92" duration="15.00" routeLength="218.00" waitingTime="0.00" waitingCount="0" stopTime="0.00" timeLoss="0.49" rerouteNo="0" devices="vehroute_flow_flatten_r_S_to_N.1 tripinfo_flow_flatten_r_S_to_N.1" vType="moto" speedFactor="1.16" vaporized=""/>
    <tripinfo id="flow_flatten_r_N_to_E.0" depart="0.00" departLane="N_in_1" departPos="107.37" departSpeed="5.80" departDelay="0.00" arrival="27.00" arrivalLane="E_out_1" arrivalPos="189.60" arrivalSpeed="12.65" duration="27.00" routeLength="291.18" waitingTime="0.00" waitingCount="0" stopTime="0.00" timeLoss="2.74" rerouteNo="0" devices="vehroute_flow_flatten_r_N_to_E.0 tripinfo_flow_flatten_r_N_to_E.0" vType="car" speedFactor="0.92" vaporized=""/>
    <tripinfo id="flow_flatten_r_S_to_N.0" depart="0.00" departLane="S_in_0" departPos="44.88" departSpeed="6.80" departDelay="0.00" arrival="31.00" arrivalLane="N_out_0" arrivalPos="189.60" arrivalSpeed="12.18" duration="31.00" routeLength="355.12" waitingTime="0.00" waitingCount="0" stopTime="0.00" timeLoss="1.99" rerouteNo="0" devices="vehroute_flow_flatten_r_S_to_N.0 tripinfo_flow_flatten_r_S_to_N.0" vType="truck" speedFactor="0.90" vaporized=""/>
    <tripinfo id="flow_flatten_r_N_to_S.1" depart="11.00" departLane="N_in_0" departPos="113.04" departSpeed="10.33" departDelay="0.17" arrival="32.00" arrivalLane="S_out_1" arrivalPos="189.60" arrivalSpeed="13.55" duration="21.00" routeLength="286.96" waitingTime="0.00" waitingCount="0" stopTime="0.00" timeLoss="1.12" rerouteNo="0" devices="vehroute_flow_flatten_r_N_to_S.1 tripinfo_flow_flatten_r_N_to_S.1" vType="moto" speedFactor="1.04" vaporized=""/>
    <tripinfo id="flow_flatten_r_N_to_W.0" depart="0.00" departLane="N_in_0" departPos="120.11" departSpeed="3.62" departDelay="0.00" arrival="33.00" arrivalLane="W_out_0" arrivalPos="189.60" arrivalSpeed="11.54" duration="33.00" routeLength="268.12" waitingTime="0.00" waitingCount="0" stopTime="0.00" timeLoss="9.12" rerouteNo="0" devices="vehroute_flow_flatten_r_N_to_W.0 tripinfo_flow_flatten_r_N_to_W.0" vType="container" speedFactor="0.85" vaporized=""/>
    <tripinfo id="flow_flatten_r_N_to_S.0" depart="0.00" departLane="N_in_0" departPos="8.76" departSpeed="8.37" departDelay="0.00" arrival="34.00" arrivalLane="S_out_0" arrivalPos="189.60" arrivalSpeed="12.19" duration="34.00" routeLength="391.24" waitingTime="0.00" waitingCount="0" stopTime="0.00" timeLoss="2.04" rerouteNo="0" devices="vehroute_flow_flatten_r_N_to_S.0 tripinfo_flow_flatten_r_N_to_S.0" vType="moto" speedFactor="0.88" vaporized=""/>
    <tripinfo id="flow_flatten_r_S_to_W.0" depart="0.00" departLane="S_in_0" departPos="5.65" departSpeed="12.67" departDelay="0.00" arrival="42.00" arrivalLane="W_out_1" arrivalPos="189.60" arrivalSpeed="13.17" duration="42.00" routeLength="392.90" waitingTime="1.00" waitingCount="1" stopTime="0.00" timeLoss="11.47" rerouteNo="0" devices="vehroute_flow_flatten_r_S_to_W.0 tripinfo_flow_flatten_r_S_to_W.0" vType="bus" speedFactor="0.96" vaporized=""/>
    <tripinfo id="flow_flatten_r_S_to_N.2" depart="22.00" departLane="S_in_1" departPos="175.97" departSpeed="7.37" departDelay="0.80" arrival="42.00" arrivalLane="N_out_1" arrivalPos="189.60" arrivalSpeed="12.96" duration="20.00" routeLength="224.03" waitingTime="0.00" waitingCount="0" stopTime="0.00" timeLoss="3.17" rerouteNo="0" devices="vehroute_flow_flatten_r_S_to_N.2 tripinfo_flow_flatten_r_S_to_N.2" vType="moto" speedFactor="0.99" vaporized=""/>
    <tripinfo id="flow_flatten_r_N_to_E.1" depart="27.00" departLane="N_in_1" departPos="188.13" departSpeed="1.46" departDelay="0.82" arrival="46.00" arrivalLane="E_out_1" arrivalPos="189.60" arrivalSpeed="12.57" duration="19.00" routeLength="210.42" waitingTime="0.00" waitingCount="0" stopTime="0.00" timeLoss="2.12" rerouteNo="0" devices="vehroute_flow_flatten_r_N_to_E.1 tripinfo_flow_flatten_r_N_to_E.1" vType="moto" speedFactor="0.96" vaporized=""/>
    <tripinfo id="flow_flatten_r_S_to_N.3" depart="32.00" departLane="S_in_0" departPos="156.52" departSpeed="7.69" departDelay="0.21" arrival="50.00" arrivalLane="N_out_0" arrivalPos="189.60" arrivalSpeed="14.53" duration="18.00" routeLength="243.48" waitingTime="0.00" waitingCount="0" stopTime="0.00" timeLoss="0.99" rerouteNo="0" devices="vehroute_flow_flatten_r_S_to_N.3 tripinfo_flow_flatten_r_S_to_N.3" vType="moto" speedFactor="1.08" vaporized=""/>
    <tripinfo id="flow_flatten_r_N_to_W.1" depart="28.00" departLane="N_in_0" departPos="136.87" departSpeed="1.25" departDelay="0.62" arrival="51.00" arrivalLane="W_out_0" arrivalPos="189.60" arrivalSpeed="15.39" duration="23.00" routeLength="251.36" waitingTime="0.00" waitingCount="0" stopTime="0.00" timeLoss="5.65" rerouteNo="0" devices="vehroute_flow_flatten_r_N_to_W.1 tripinfo_flow_flatten_r_N_to_W.1" vType="moto" speedFactor="1.12" vaporized=""/>
    <tripinfo id="flow_flatten_r_N_to_S.2" depart="22.00" departLane="N_in_0" departPos="5.28" departSpeed="2.37" departDelay="0.35" arrival="52.00" arrivalLane="S_out_1" arrivalPos="189.60" arrivalSpeed="15.32" duration="30.00" routeLength="394.72" waitingTime="0.00" waitingCount="0" stopTime="0.00" timeLoss="3.79" rerouteNo="0" devices="vehroute_flow_flatten_r_N_to_S.2 tripinfo_flow_flatten_r_N_to_S.2" vType="car" speedFactor="1.12" vaporized=""/>
    <tripinfo id="flow_flatten_r_W_to_S.0" depart="0.00" departLane="W_in_0" departPos="108.38" departSpeed="3.13" departDelay="0.00" arrival="61.00" arrivalLane="S_out_0" arrivalPos="189.60" arrivalSpeed="12.91" duration="61.00" routeLength="279.85" waitingTime="33.00" waitingCount="1" stopTime="0.00" timeLoss="40.58" rerouteNo="0" devices="vehroute_flow_flatten_r_W_to_S.0 tripinfo_flow_flatten_r_W_to_S.0" vType="moto" speedFactor="1.01" vaporized=""/>
    <tripinfo id="flow_flatten_r_W_to_E.0" depart="0.00" departLane="W_in_0" departPos="24.53" departSpeed="4.77" departDelay="0.00" arrival="64.00" arrivalLane="E_out_0" arrivalPos="189.60" arrivalSpeed="13.91" duration="64.00" routeLength="375.47" waitingTime="29.00" waitingCount="1" stopTime="0.00" timeLoss="37.25" rerouteNo="0" devices="vehroute_flow_flatten_r_W_to_E.0 tripinfo_flow_flatten_r_W_to_E.0" vType="moto" speedFactor="1.03" vaporized=""/>
    <tripinfo id="flow_flatten_r_W_to_E.1" depart="16.00" departLane="W_in_0" departPos="34.76" departSpeed="15.28" departDelay="0.80" arrival="65.00" arrivalLane="E_out_0" arrivalPos="189.60" arrivalSpeed="15.39" duration="49.00" routeLength="365.24" waitingTime="16.00" waitingCount="1" stopTime="0.00" timeLoss="25.82" rerouteNo="0" devices="vehroute_flow_flatten_r_W_to_E.1 tripinfo_flow_flatten_r_W_to_E.1" vType="moto" speedFactor="1.19" vaporized=""/>
    <tripinfo id="flow_flatten_r_E_to_W.0" depart="0.00" departLane="E_in_1" departPos="127.60" departSpeed="0.09" departDelay="0.00" arrival="66.00" arrivalLane="W_out_0" arrivalPos="189.60" arrivalSpeed="14.16" duration="66.00" routeLength="272.40" waitingTime="30.00" waitingCount="1" stopTime="0.00" timeLoss="46.76" rerouteNo="0" devices="vehroute_flow_flatten_r_E_to_W.0 tripinfo_flow_flatten_r_E_to_W.0" vType="truck" speedFactor="1.02" vaporized=""/>
    <tripinfo id="flow_flatten_r_E_to_N.0" depart="0.00" departLane="E_in_1" departPos="8.27" departSpeed="7.69" departDelay="0.00" arrival="67.00" arrivalLane="N_out_0" arrivalPos="189.60" arrivalSpeed="12.30" duration="67.00" routeLength="379.96" waitingTime="28.00" waitingCount="1" stopTime="0.00" timeLoss="37.08" rerouteNo="0" devices="vehroute_flow_flatten_r_E_to_N.0 tripinfo_flow_flatten_r_E_to_N.0" vType="car" speedFactor="0.94" vaporized=""/>
    <tripinfo id="flow_flatten_r_W_to_E.2" depart="31.00" departLane="W_in_1" departPos="116.63" departSpeed="6.10" departDelay="0.61" arrival="67.00" arrivalLane="E_out_0" arrivalPos="189.60" arrivalSpeed="14.28" duration="36.00" routeLength="283.37" waitingTime="1.00" waitingCount="1" stopTime="0.00" timeLoss="15.81" rerouteNo="0" devices="vehroute_flow_flatten_r_W_to_E.2 tripinfo_flow_flatten_r_W_to_E.2" vType="moto" speedFactor="1.04" vaporized=""/>
    <tripinfo id="flow_flatten_r_E_to_S.0" depart="0.00" departLane="E_in_0" departPos="103.38" departSpeed="3.51" departDelay="0.00" arrival="70.00" arrivalLane="S_out_1" arrivalPos="189.60" arrivalSpeed="13.16" duration="70.00" routeLength="295.17" waitingTime="34.00" waitingCount="2" stopTime="0.00" timeLoss="48.23" rerouteNo="0" devices="vehroute_flow_flatten_r_E_to_S.0 tripinfo_flow_flatten_r_E_to_S.0" vType="moto" speedFactor="1.02" vaporized=""/>
    <tripinfo id="flow_flatten_r_W_to_S.1" depart="38.00" departLane="W_in_1" departPos="118.54" departSpeed="10.72" departDelay="0.71" arrival="71.00" arrivalLane="S_out_0" arrivalPos="189.60" arrivalSpeed="12.18" duration="33.00" routeLength="269.69" waitingTime="0.00" waitingCount="0" stopTime="0.00" timeLoss="9.65" rerouteNo="0" devices="vehroute_flow_flatten_r_W_to_S.1 tripinfo_flow_flatten_r_W_to_S.1" vType="moto" speedFactor="0.88" vaporized=""/>
    <tripinfo id="flow_flatten_r_E_to_W.1" depart="15.00" departLane="E_in_1" departPos="109.98" departSpeed="5.98" departDelay="0.38" arrival="72.00" arrivalLane="W_out_0" arrivalPos="189.60" arrivalSpeed="11.45" duration="57.00" routeLength="290.02" waitingTime="21.00" waitingCount="2" stopTime="0.00" timeLoss="32.97" rerouteNo="0" devices="vehroute_flow_flatten_r_E_to_W.1 tripinfo_flow_flatten_r_E_to_W.1" vType="moto" speedFactor="0.87" vaporized=""/>
    <tripinfo id="flow_flatten_r_E_to_E.0" depart="0.00" departLane="E_in_0" departPos="8.62" departSpeed="10.83" departDelay="0.00" arrival="75.00" arrivalLane="E_out_1" arrivalPos="189.60" arrivalSpeed="14.97" duration="75.00" routeLength="375.25" waitingTime="36.00" waitingCount="2" stopTime="0.00" timeLoss="49.31" rerouteNo="0" devices="vehroute_flow_flatten_r_E_to_E.0 tripinfo_flow_flatten_r_E_to_E.0" vType="moto" speedFactor="1.09" vaporized=""/>
    <tripinfo id="flow_flatten_r_E_to_N.1" depart="37.00" departLane="E_in_1" departPos="57.40" departSpeed="0.25" departDelay="0.11" arrival="78.00" arrivalLane="N_out_0" arrivalPos="189.60" arrivalSpeed="9.93" duration="41.00" routeLength="330.83" waitingTime="0.00" waitingCount="0" stopTime="0.00" timeLoss="9.08" rerouteNo="0" devices="vehroute_flow_flatten_r_E_to_N.1 tripinfo_flow_flatten_r_E_to_N.1" vType="truck" speedFactor="0.77" vaporized=""/>
    <tripinfo id="flow_flatten_r_W_to_E.3" depart="46.00" departLane="W_in_1" departPos="23.57" departSpeed="9.43" departDelay="0.41" arrival="83.00" arrivalLane="E_out_0" arrivalPos="189.60" arrivalSpeed="13.20" duration="37.00" routeLength="376.43" waitingTime="0.00" waitingCount="0" stopTime="0.00" timeLoss="7.74" rerouteNo="0" devices="vehroute_flow_flatten_r_W_to_E.3 tripinfo_flow_flatten_r_W_to_E.3" vType="bus" speedFactor="0.95" vaporized=""/>
    <tripinfo id="flow_flatten_r_E_to_W.2" depart="30.00" departLane="E_in_1" departPos="40.26" departSpeed="3.16" departDelay="0.76" arrival="84.00" arrivalLane="W_out_0" arrivalPos="189.60" arrivalSpeed="10.57" duration="54.00" routeLength="359.74" waitingTime="0.00" waitingCount="0" stopTime="0.00" timeLoss="20.32" rerouteNo="0" devices="vehroute_flow_flatten_r_E_to_W.2 tripinfo_flow_flatten_r_E_to_W.2" vType="container" speedFactor="0.78" vaporized=""/>
    <tripinfo id="flow_flatten_r_E_to_W.3" depart="44.00" departLane="E_in_0" departPos="19.25" departSpeed="11.19" departDelay="0.14" arrival="86.00" arrivalLane="W_out_0" arrivalPos="189.60" arrivalSpeed="15.33" duration="42.00" routeLength="380.75" waitingTime="1.00" waitingCount="1" stopTime="0.00" timeLoss="17.73" rerouteNo="0" devices="vehroute_flow_flatten_r_E_to_W.3 tripinfo_flow_flatten_r_E_to_W.3" vType="moto" speedFactor="1.20" vaporized=""/>
    <tripinfo id="flow_flatten_r_E_to_W.4" depart="59.00" departLane="E_in_1" departPos="91.52" departSpeed="12.98" departDelay="0.52" arrival="90.00" arrivalLane="W_out_0" arrivalPos="189.60" arrivalSpeed="12.10" duration="31.00" routeLength="308.48" waitingTime="0.00" waitingCount="0" stopTime="0.00" timeLoss="7.57" rerouteNo="0" devices="vehroute_flow_flatten_r_E_to_W.4 tripinfo_flow_flatten_r_E_to_W.4" vType="moto" speedFactor="0.95" vaporized=""/>
    <tripinfo id="flow_flatten_r_E_to_E.1" depart="75.00" departLane="E_in_0" departPos="177.50" departSpeed="8.30" departDelay="0.28" arrival="95.00" arrivalLane="E_out_1" arrivalPos="189.60" arrivalSpeed="15.39" duration="20.00" routeLength="206.37" waitingTime="0.00" waitingCount="0" stopTime="0.00" timeLoss="5.58" rerouteNo="0" devices="vehroute_flow_flatten_r_E_to_E.1 tripinfo_flow_flatten_r_E_to_E.1" vType="moto" speedFactor="1.14" vaporized=""/>
    <tripinfo id="flow_flatten_r_E_to_W.5" depart="74.00" departLane="E_in_1" departPos="155.35" departSpeed="12.62" departDelay="0.90" arrival="97.00" arrivalLane="W_out_0" arrivalPos="189.60" arrivalSpeed="14.12" duration="23.00" routeLength="244.65" waitingTime="0.00" waitingCount="0" stopTime="0.00" timeLoss="6.44" rerouteNo="0" devices="vehroute_flow_flatten_r_E_to_W.5 tripinfo_flow_flatten_r_E_to_W.5" vType="moto" speedFactor="1.07" vaporized=""/>
    <tripinfo id="flow_flatten_r_E_to_S.1" depart="39.00" departLane="E_in_1" departPos="134.76" departSpeed="6.26" departDelay="0.97" arrival="99.00" arrivalLane="S_out_1" arrivalPos="189.60" arrivalSpeed="12.44" duration="60.00" routeLength="263.79" waitingTime="10.00" waitingCount="2" stopTime="0.00" timeLoss="38.14" rerouteNo="0" devices="vehroute_flow_flatten_r_E_to_S.1 tripinfo_flow_flatten_r_E_to_S.1" vType="container" speedFactor="0.91" vaporized=""/>
    <tripinfo id="flow_flatten_r_W_to_E.4" depart="61.00" departLane="W_in_1" departPos="65.57" departSpeed="2.07" departDelay="0.22" arrival="100.00" arrivalLane="E_out_0" arrivalPos="189.60" arrivalSpeed="12.23" duration="39.00" routeLength="334.43" waitingTime="0.00" waitingCount="0" stopTime="0.00" timeLoss="11.89" rerouteNo="0" devices="vehroute_flow_flatten_r_W_to_E.4 tripinfo_flow_flatten_r_W_to_E.4" vType="moto" speedFactor="0.89" vaporized=""/>
    <tripinfo id="flow_flatten_r_W_to_E.5" depart="76.00" departLane="W_in_1" departPos="152.01" departSpeed="4.57" departDelay="0.02" arrival="102.00" arrivalLane="E_out_0" arrivalPos="189.60" arrivalSpeed="11.69" duration="26.00" routeLength="247.99" waitingTime="0.00" waitingCount="0" stopTime="0.00" timeLoss="5.82" rerouteNo="0" devices="vehroute_flow_flatten_r_W_to_E.5 tripinfo_flow_flatten_r_W_to_E.5" vType="car" speedFactor="0.90" vaporized=""/>
    <tripinfo id="flow_flatten_r_E_to_N.2" depart="74.00" departLane="E_in_0" departPos="78.09" departSpeed="11.28" departDelay="0.22" arrival="104.00" arrivalLane="N_out_0" arrivalPos="189.60" arrivalSpeed="12.17" duration="30.00" routeLength="310.14" waitingTime="0.00" waitingCount="0" stopTime="0.00" timeLoss="3.65" rerouteNo="0" devices="vehroute_flow_flatten_r_E_to_N.2 tripinfo_flow_flatten_r_E_to_N.2" vType="truck" speedFactor="0.89" vaporized=""/>
    <tripinfo id="flow_flatten_r_N_to_S.3" depart="33.00" departLane="N_in_0" departPos="69.24" departSpeed="6.06" departDelay="0.52" arrival="107.00" arrivalLane="S_out_0" arrivalPos="189.60" arrivalSpeed="14.46" duration="74.00" routeLength="330.76" waitingTime="43.00" waitingCount="1" stopTime="0.00" timeLoss="50.65" rerouteNo="0" devices="vehroute_flow_flatten_r_N_to_S.3 tripinfo_flow_flatten_r_N_to_S.3" vType="moto" speedFactor="1.05" vaporized=""/>
    <tripinfo id="flow_flatten_r_N_to_S.4" depart="44.00" departLane="N_in_0" departPos="148.08" departSpeed="9.64" departDelay="0.69" arrival="108.00" arrivalLane="S_out_1" arrivalPos="189.60" arrivalSpeed="13.50" duration="64.00" routeLength="251.92" waitingTime="37.00" waitingCount="1" stopTime="0.00" timeLoss="46.46" rerouteNo="0" devices="vehroute_flow_flatten_r_N_to_S.4 tripinfo_flow_flatten_r_N_to_S.4" vType="car" speedFactor="1.05" vaporized=""/>
    <tripinfo id="flow_flatten_r_W_to_N.0" depart="0.00" departLane="W_in_1" departPos="182.88" departSpeed="4.61" departDelay="0.00" arrival="110.00" arrivalLane="N_out_1" arrivalPos="189.60" arrivalSpeed="11.28" duration="110.00" routeLength="215.67" waitingTime="73.00" waitingCount="2" stopTime="0.00" timeLoss="90.05" rerouteNo="0" devices="vehroute_flow_flatten_r_W_to_N.0 tripinfo_flow_flatten_r_W_to_N.0" vType="container" speedFactor="0.82" vaporized=""/>
    <tripinfo id="flow_flatten_r_S_to_E.1" depart="27.00" departLane="S_in_0" departPos="16.31" departSpeed="4.55" departDelay="0.97" arrival="111.00" arrivalLane="E_out_0" arrivalPos="189.60" arrivalSpeed="13.14" duration="84.00" routeLength="371.92" waitingTime="40.00" waitingCount="1" stopTime="0.00" timeLoss="55.09" rerouteNo="0" devices="vehroute_flow_flatten_r_S_to_E.1 tripinfo_flow_flatten_r_S_to_E.1" vType="bus" speedFactor="0.97" vaporized=""/>
    <tripinfo id="flow_flatten_r_N_to_S.5" depart="55.00" departLane="N_in_1" departPos="121.56" departSpeed="1.57" departDelay="0.87" arrival="111.00" arrivalLane="S_out_0" arrivalPos="189.60" arrivalSpeed="14.93" duration="56.00" routeLength="278.44" waitingTime="25.00" waitingCount="2" stopTime="0.00" timeLoss="37.15" rerouteNo="0" devices="vehroute_flow_flatten_r_N_to_S.5 tripinfo_flow_flatten_r_N_to_S.5" vType="emergency" speedFactor="1.10" vaporized=""/>
    <tripinfo id="flow_flatten_r_N_to_W.2" depart="55.00" departLane="N_in_0" departPos="104.14" departSpeed="12.34" departDelay="0.23" arrival="112.00" arrivalLane="W_out_0" arrivalPos="189.60" arrivalSpeed="12.35" duration="57.00" routeLength="284.09" waitingTime="26.00" waitingCount="1" stopTime="0.00" timeLoss="33.94" rerouteNo="0" devices="vehroute_flow_flatten_r_N_to_W.2 tripinfo_flow_flatten_r_N_to_W.2" vType="truck" speedFactor="0.94" vaporized=""/>
    <tripinfo id="flow_flatten_r_S_to_E.2" depart="53.00" departLane="S_in_0" departPos="160.30" departSpeed="7.43" departDelay="0.94" arrival="114.00" arrivalLane="E_out_0" arrivalPos="189.60" arrivalSpeed="12.32" duration="61.00" routeLength="227.93" waitingTime="32.00" waitingCount="1" stopTime="0.00" timeLoss="42.03" rerouteNo="0" devices="vehroute_flow_flatten_r_S_to_E.2 tripinfo_flow_flatten_r_S_to_E.2" vType="truck" speedFactor="0.92" vaporized=""/>
    <tripinfo id="flow_flatten_r_N_to_S.6" depart="65.00" departLane="N_in_1" departPos="2.21" departSpeed="9.40" departDelay="0.04" arrival="114.00" arrivalLane="S_out_0" arrivalPos="189.60" arrivalSpeed="13.22" duration="49.00" routeLength="397.79" waitingTime="7.00" waitingCount="1" stopTime="0.00" timeLoss="20.63" rerouteNo="0" devices="vehroute_flow_flatten_r_N_to_S.6 tripinfo_flow_flatten_r_N_to_S.6" vType="moto" speedFactor="1.03" vaporized=""/>
    <tripinfo id="flow_flatten_r_N_to_S.7" depart="76.00" departLane="N_in_1" departPos="137.11" departSpeed="4.96" departDelay="0.21" arrival="115.00" arrivalLane="S_out_0" arrivalPos="189.60" arrivalSpeed="14.77" duration="39.00" routeLength="262.89" waitingTime="4.00" waitingCount="2" stopTime="0.00" timeLoss="21.62" rerouteNo="0" devices="vehroute_flow_flatten_r_N_to_S.7 tripinfo_flow_flatten_r_N_to_S.7" vType="moto" speedFactor="1.10" vaporized=""/>
    <tripinfo id="flow_flatten_r_S_to_E.3" depart="79.00" departLane="S_in_1" departPos="47.50" departSpeed="4.37" departDelay="0.90" arrival="116.00" arrivalLane="E_out_0" arrivalPos="189.60" arrivalSpeed="13.58" duration="37.00" routeLength="340.73" waitingTime="0.00" waitingCount="0" stopTime="0.00" timeLoss="10.78" rerouteNo="0" devices="vehroute_flow_flatten_r_S_to_E.3 tripinfo_flow_flatten_r_S_to_E.3" vType="car" speedFactor="0.98" vaporized=""/>
    <tripinfo id="flow_flatten_r_S_to_N.8" depart="85.00" departLane="S_in_0" departPos="6.57" departSpeed="1.25" departDelay="0.22" arrival="116.00" arrivalLane="N_out_0" arrivalPos="189.60" arrivalSpeed="13.58" duration="31.00" routeLength="393.43" waitingTime="0.00" waitingCount="0" stopTime="0.00" timeLoss="4.17" rerouteNo="0" devices="vehroute_flow_flatten_r_S_to_N.8 tripinfo_flow_flatten_r_S_to_N.8" vType="moto" speedFactor="1.06" vaporized=""/>
    <tripinfo id="flow_flatten_r_S_to_N.7" depart="75.00" departLane="S_in_1" departPos="159.96" departSpeed="6.69" departDelay="0.81" arrival="119.00" arrivalLane="N_out_0" arrivalPos="189.60" arrivalSpeed="13.82" duration="44.00" routeLength="240.04" waitingTime="16.00" waitingCount="1" stopTime="0.00" timeLoss="27.30" rerouteNo="0" devices="vehroute_flow_flatten_r_S_to_N.7 tripinfo_flow_flatten_r_S_to_N.7" vType="moto" speedFactor="1.04" vaporized=""/>
    <tripinfo id="flow_flatten_r_N_to_S.8" depart="87.00" departLane="N_in_1" departPos="22.64" departSpeed="11.00" departDelay="0.38" arrival="120.00" arrivalLane="S_out_0" arrivalPos="189.60" arrivalSpeed="14.26" duration="33.00" routeLength="377.36" waitingTime="0.00" waitingCount="0" stopTime="0.00" timeLoss="7.43" rerouteNo="0" devices="vehroute_flow_flatten_r_N_to_S.8 tripinfo_flow_flatten_r_N_to_S.8" vType="moto" speedFactor="1.07" vaporized=""/>
    <tripinfo id="flow_flatten_r_S_to_N.4" depart="43.00" departLane="S_in_1" departPos="77.94" departSpeed="4.43" departDelay="0.61" arrival="122.00" arrivalLane="N_out_0" arrivalPos="189.60" arrivalSpeed="14.36" duration="79.00" routeLength="322.06" waitingTime="47.00" waitingCount="2" stopTime="0.00" timeLoss="57.37" rerouteNo="0" devices="vehroute_flow_flatten_r_S_to_N.4 tripinfo_flow_flatten_r_S_to_N.4" vType="moto" speedFactor="1.08" vaporized=""/>
    <tripinfo id="flow_flatten_r_N_to_W.3" depart="83.00" departLane="N_in_1" departPos="150.35" departSpeed="0.24" departDelay="0.85" arrival="122.00" arrivalLane="W_out_0" arrivalPos="189.60" arrivalSpeed="11.07" duration="39.00" routeLength="237.88" waitingTime="3.00" waitingCount="2" stopTime="0.00" timeLoss="16.53" rerouteNo="0" devices="vehroute_flow_flatten_r_N_to_W.3 tripinfo_flow_flatten_r_N_to_W.3" vType="moto" speedFactor="0.80" vaporized=""/>
    <tripinfo id="flow_flatten_r_S_to_S.1" depart="53.00" departLane="S_in_1" departPos="111.69" departSpeed="5.97" departDelay="0.20" arrival="125.00" arrivalLane="S_out_1" arrivalPos="189.60" arrivalSpeed="13.26" duration="72.00" routeLength="272.18" waitingTime="37.00" waitingCount="2" stopTime="0.00" timeLoss="51.49" rerouteNo="0" devices="vehroute_flow_flatten_r_S_to_S.1 tripinfo_flow_flatten_r_S_to_S.1" vType="moto" speedFactor="1.00" vaporized=""/>
    <tripinfo id="flow_flatten_r_S_to_W.1" depart="27.00" departLane="S_in_0" departPos="34.25" departSpeed="2.67" departDelay="0.20" arrival="126.00" arrivalLane="W_out_1" arrivalPos="189.60" arrivalSpeed="12.24" duration="99.00" routeLength="364.30" waitingTime="59.00" waitingCount="2" stopTime="0.00" timeLoss="69.12" rerouteNo="0" devices="vehroute_flow_flatten_r_S_to_W.1 tripinfo_flow_flatten_r_S_to_W.1" vType="moto" speedFactor="0.93" vaporized=""/>
    <tripinfo id="flow_flatten_r_S_to_N.6" depart="64.00" departLane="S_in_0" departPos="64.25" departSpeed="6.13" departDelay="0.41" arrival="126.00" arrivalLane="N_out_0" arrivalPos="189.60" arrivalSpeed="12.60" duration="62.00" routeLength="335.75" waitingTime="19.00" waitingCount="2" stopTime="0.00" timeLoss="35.30" rerouteNo="0" devices="vehroute_flow_flatten_r_S_to_N.6 tripinfo_flow_flatten_r_S_to_N.6" vType="moto" speedFactor="0.94" vaporized=""/>
    <tripinfo id="flow_flatten_r_S_to_W.2" depart="54.00" departLane="S_in_1" departPos="112.37" departSpeed="6.03" departDelay="0.40" arrival="127.00" arrivalLane="W_out_1" arrivalPos="189.60" arrivalSpeed="14.92" duration="73.00" routeLength="286.18" waitingTime="37.00" waitingCount="2" stopTime="0.00" timeLoss="53.82" rerouteNo="0" devices="vehroute_flow_flatten_r_S_to_W.2 tripinfo_flow_flatten_r_S_to_W.2" vType="moto" speedFactor="1.14" vaporized=""/>
    <tripinfo id="flow_flatten_r_S_to_N.9" depart="96.00" departLane="S_in_0" departPos="36.14" departSpeed="9.67" departDelay="0.62" arrival="127.00" arrivalLane="N_out_0" arrivalPos="189.60" arrivalSpeed="13.65" duration="31.00" routeLength="363.86" waitingTime="0.00" waitingCount="0" stopTime="0.00" timeLoss="7.76" rerouteNo="0" devices="vehroute_flow_flatten_r_S_to_N.9 tripinfo_flow_flatten_r_S_to_N.9" vType="moto" speedFactor="1.17" vaporized=""/>
    <tripinfo id="flow_flatten_r_S_to_N.5" depart="53.00" departLane="S_in_1" departPos="65.33" departSpeed="12.93" departDelay="0.01" arrival="128.00" arrivalLane="N_out_0" arrivalPos="189.60" arrivalSpeed="13.03" duration="75.00" routeLength="334.67" waitingTime="35.00" waitingCount="2" stopTime="0.00" timeLoss="51.44" rerouteNo="0" devices="vehroute_flow_flatten_r_S_to_N.5 tripinfo_flow_flatten_r_S_to_N.5" vType="moto" speedFactor="1.03" vaporized=""/>
    <tripinfo id="flow_flatten_r_S_to_N.10" depart="106.00" departLane="S_in_0" departPos="144.29" departSpeed="4.78" departDelay="0.02" arrival="130.00" arrivalLane="N_out_0" arrivalPos="189.60" arrivalSpeed="15.68" duration="24.00" routeLength="255.71" waitingTime="0.00" waitingCount="0" stopTime="0.00" timeLoss="6.95" rerouteNo="0" devices="vehroute_flow_flatten_r_S_to_N.10 tripinfo_flow_flatten_r_S_to_N.10" vType="emergency" speedFactor="1.14" vaporized=""/>
    <tripinfo id="flow_flatten_r_S_to_E.4" depart="105.00" departLane="S_in_0" departPos="43.80" departSpeed="2.90" departDelay="0.87" arrival="138.00" arrivalLane="E_out_0" arrivalPos="189.60" arrivalSpeed="12.41" duration="33.00" routeLength="344.43" waitingTime="0.00" waitingCount="0" stopTime="0.00" timeLoss="4.80" rerouteNo="0" devices="vehroute_flow_flatten_r_S_to_E.4 tripinfo_flow_flatten_r_S_to_E.4" vType="moto" speedFactor="0.94" vaporized=""/>
    <tripinfo id="flow_flatten_r_N_to_S.9" depart="98.00" departLane="N_in_1" departPos="20.79" departSpeed="6.02" departDelay="0.56" arrival="139.00" arrivalLane="S_out_0" arrivalPos="189.60" arrivalSpeed="14.07" duration="41.00" routeLength="379.21" waitingTime="4.00" waitingCount="1" stopTime="0.00" timeLoss="15.52" rerouteNo="0" devices="vehroute_flow_flatten_r_N_to_S.9 tripinfo_flow_flatten_r_N_to_S.9" vType="car" speedFactor="1.10" vaporized=""/>
    <tripinfo id="flow_flatten_r_N_to_E.2" depart="53.00" departLane="N_in_0" departPos="167.23" departSpeed="1.90" departDelay="0.64" arrival="140.00" arrivalLane="E_out_1" arrivalPos="189.60" arrivalSpeed="13.29" duration="87.00" routeLength="231.32" waitingTime="47.00" waitingCount="2" stopTime="0.00" timeLoss="68.91" rerouteNo="0" devices="vehroute_flow_flatten_r_N_to_E.2 tripinfo_flow_flatten_r_N_to_E.2" vType="container" speedFactor="0.97" vaporized=""/>
    <tripinfo id="flow_flatten_r_S_to_N.11" depart="117.00" departLane="S_in_1" departPos="123.82" departSpeed="5.11" departDelay="0.42" arrival="140.00" arrivalLane="N_out_0" arrivalPos="189.60" arrivalSpeed="15.36" duration="23.00" routeLength="276.18" waitingTime="0.00" waitingCount="0" stopTime="0.00" timeLoss="4.87" rerouteNo="0" devices="vehroute_flow_flatten_r_S_to_N.11 tripinfo_flow_flatten_r_S_to_N.11" vType="moto" speedFactor="1.16" vaporized=""/>