<?xml version="1.0" encoding="UTF-8"?>

<!-- generated on 2025-12-20T02:55:27.274385+07:00 by Eclipse SUMO GUI 1.25.0
<sumoConfiguration xmlns:xsi="http://www.w3.org/2001/XMLSchema-instance" xsi:noNamespaceSchemaLocation="http://sumo.dlr.de/xsd/sumoConfiguration.xsd">

    <input>
        <net-file value="nets/demo/net.net.xml"/>
        <route-files value="nets/demo/route_60p2k.rou.xml"/>
    </input>

    <output>
        <summary-output value="result_test/e\summary_ep_1.xml"/>
        <tripinfo-output value="result_test/e\tripinfo_ep_1.xml"/>
        <vehroute-output value="result_test/e\vehroute_ep_1.xml"/>
    </output>

    <time>
        <begin value="0"/>
        <step-length value="1.0"/>
    </time>

    <processing>
        <scale value="1.0"/>
        <time-to-teleport value="600"/>
    </processing>

    <report>
        <verbose value="true"/>
    </report>

    <traci_server>
        <remote-port value="62141"/>
    </traci_server>

    <gui_only>
        <gui-settings-file value="nets/demo/gui-settings.xml"/>
        <start value="true"/>
        <delay value="150"/>
    </gui_only>

</sumoConfiguration>
-->

<routes xmlns:xsi="http://www.w3.org/2001/XMLSchema-instance" xsi:noNamespaceSchemaLocation="http://sumo.dlr.de/xsd/routes_file.xsd">
    <vehicle id="flow_flatten_r_S_to_E.0" type="moto" depart="0.00" departLane="0" departPos="168.2937" departSpeed="12.0365" speedFactor="1.0505" arrival="19.00">
        <route edges="S_in E_out"/>
    </vehicle>

    <vehicle id="flow_flatten_r_N_to_N.0" type="moto" depart="0.00" departLane="1" departPos="166.0107" departSpeed="0.9611" speedFactor="1.1475" arrival="21.00">
        <route edges="N_in N_out"/>
    </vehicle>

    <vehicle id="flow_flatten_r_S_to_S.0" type="truck" depart="0.00" departLane="1" departPos="144.9496" departSpeed="4.262" speedFactor="1.0161" arrival="26.00">
        <route edges="S_in S_out"/>
    </vehicle>

    <vehicle id="flow_flatten_r_S_to_N.1" type="moto" depart="11.00" departLane="1" departPos="182.0047" departSpeed="14.9608" speedFactor="1.1582" arrival="26.00">
        <route edges="S_in N_out"/>
    </vehicle>

    <vehicle id="flow_flatten_r_N_to_E.0" type="car" depart="0.00" departLane="1" departPos="107.3659" departSpeed="5.7992" speedFactor="0.9228" arrival="27.00">
        <route edges="N_in E_out"/>
    </vehicle>

    <vehicle id="flow_flatten_r_S_to_N.0" type="truck" depart="0.00" departLane="0" departPos="44.8816" departSpeed="6.8018" speedFactor="0.8990" arrival="31.00">
        <route edges="S_in N_out"/>
    </vehicle>

    <vehicle id="flow_flatten_r_N_to_S.1" type="moto" depart="11.00" departLane="0" departPos="113.0446" departSpeed="10.3272" speedFactor="1.0383" arrival="32.00">
        <route edges="N_in S_out"/>
    </vehicle>

    <vehicle id="flow_flatten_r_N_to_W.0" type="container" depart="0.00" departLane="0" departPos="120.1072" departSpeed="3.6228" speedFactor="0.8488" arrival="33.00">
        <route edges="N_in W_out"/>
    </vehicle>

    <vehicle id="flow_flatten_r_N_to_S.0" type="moto" depart="0.00" departLane="0" departPos="8.759" departSpeed="8.3676" speedFactor="0.8806" arrival="34.00">
        <route edges="N_in S_out"/>
    </vehicle>

    <vehicle id="flow_flatten_r_S_to_W.0" type="bus" depart="0.00" departLane="0" departPos="5.6544" departSpeed="12.666" speedFactor="0.9581" arrival="42.00">
        <route edges="S_in W_out"/>
    </vehicle>

    <vehicle id="flow_flatten_r_S_to_N.2" type="moto" depart="22.00" departLane="1" departPos="175.9691" departSpeed="7.3726" speedFactor="0.9938" arrival="42.00">
        <route edges="S_in N_out"/>
    </vehicle>

    <vehicle id="flow_flatten_r_N_to_E.1" type="moto" depart="27.00" departLane="1" departPos="188.1343" departSpeed="1.4647" speedFactor="0.9623" arrival="46.00">
        <route edges="N_in E_out"/>
    </vehicle>

    <vehicle id="flow_flatten_r_S_to_N.3" type="moto" depart="32.00" departLane="0" departPos="156.5209" departSpeed="7.6899" speedFactor="1.0788" arrival="50.00">
        <route edges="S_in N_out"/>
    </vehicle>

    <vehicle id="flow_flatten_r_N_to_W.1" type="moto" depart="28.00" departLane="0" departPos="136.8677" departSpeed="1.2485" speedFactor="1.1228" arrival="51.00">
        <route edges="N_in W_out"/>
    </vehicle>

    <vehicle id="flow_flatten_r_N_to_S.2" type="car" depart="22.00" departLane="0" departPos="5.2781" departSpeed="2.3675" speedFactor="1.1218" arrival="52.00">
        <route edges="N_in S_out"/>
    </vehicle>

    <vehicle id="flow_flatten_r_W_to_S.0" type="moto" depart="0.00" departLane="0" departPos="108.377" departSpeed="3.1328" speedFactor="1.0101" arrival="61.00">
        <route edges="W_in S_out"/>
    </vehicle>

    <vehicle id="flow_flatten_r_W_to_E.0" type="moto" depart="0.00" departLane="0" departPos="24.5296" departSpeed="4.7654" speedFactor="1.0348" arrival="64.00">
        <route edges="W_in E_out"/>
    </vehicle>

    <vehicle id="flow_flatten_r_W_to_E.1" type="moto" depart="16.00" departLane="0" departPos="34.7646" departSpeed="15.2785" speedFactor="1.1853" arrival="65.00">
        <route edges="W_in E_out"/>
    </vehicle>

    <vehicle id="flow_flatten_r_E_to_W.0" type="truck" depart="0.00" departLane="1" departPos="127.6015" departSpeed="0.0858" speedFactor="1.0225" arrival="66.00">
        <route edges="E_in W_out"/>
    </vehicle>

    <vehicle id="flow_flatten_r_E_to_N.0" type="car" depart="0.00" departLane="1" departPos="8.2688" departSpeed="7.6911" speedFactor="0.9379" arrival="67.00">
        <route edges="E_in N_out"/>
    </vehicle>

    <vehicle id="flow_flatten_r_W_to_E.2" type="moto" depart="31.00" departLane="1" departPos="116.6259" departSpeed="6.0975" speedFactor="1.0365" arrival="67.00">
        <route edges="W_in E_out"/>
    </vehicle>

    <vehicle id="flow_flatten_r_E_to_S.0" type="moto" depart="0.00" departLane="0" departPos="103.3842" departSpeed="3.5108" speedFactor="1.0205" arrival="70.00">
        <route edges="E_in S_out"/>
    </vehicle>

    <vehicle id="flow_flatten_r_W_to_S.1" type="moto" depart="38.00" departLane="1" departPos="118.5435" departSpeed="10.7169" speedFactor="0.8806" arrival="71.00">
        <route edges="W_in S_out"/>
    </vehicle>

    <vehicle id="flow_flatten_r_E_to_W.1" type="moto" depart="15.00" departLane="1" departPos="109.9809" departSpeed="5.9752" speedFactor="0.8727" arrival="72.00">
        <route edges="E_in W_out"/>
    </vehicle>

    <vehicle id="flow_flatten_r_E_to_E.0" type="moto" depart="0.00" departLane="0" departPos="8.6229" departSpeed="10.8267" speedFactor="1.0932" arrival="75.00">
        <route edges="E_in E_out"/>
    </vehicle>

    <vehicle id="flow_flatten_r_E_to_N.1" type="truck" depart="37.00" departLane="1" departPos="57.3992" departSpeed="0.2541" speedFactor="0.7665" arrival="78.00">
        <route edges="E_in N_out"/>
    </vehicle>

    <vehicle id="flow_flatten_r_W_to_E.3" type="bus" depart="46.00" departLane="1" departPos="23.5668" departSpeed="9.4296" speedFactor="0.9525" arrival="83.00">
        <route edges="W_in E_out"/>
    </vehicle>

    <vehicle id="flow_flatten_r_E_to_W.2" type="container" depart="30.00" departLane="1" departPos="40.2647" departSpeed="3.1627" speedFactor="0.7845" arrival="84.00">
        <route edges="E_in W_out"/>
    </vehicle>

    <vehicle id="flow_flatten_r_E_to_W.3" type="moto" depart="44.00" departLane="0" departPos="19.2493" departSpeed="11.1917" speedFactor="1.2027" arrival="86.00">
        <route edges="E_in W_out"/>
    </vehicle>

    <vehicle id="flow_flatten_r_E_to_W.4" type="moto" depart="59.00" departLane="1" departPos="91.5182" departSpeed="12.9767" speedFactor="0.9517" arrival="90.00">
        <route edges="E_in W_out"/>
    </vehicle>

    <vehicle id="flow_flatten_r_E_to_E.1" type="moto" depart="75.00" departLane="0" departPos="177.4982" departSpeed="8.3004" speedFactor="1.1413" arrival="95.00">
        <route edges="E_in E_out"/>
    </vehicle>

    <vehicle id="flow_flatten_r_E_to_W.5" type="moto" depart="74.00" departLane="1" departPos="155.3486" departSpeed="12.6235" speedFactor="1.0668" arrival="97.00">
        <route edges="E_in W_out"/>
    </vehicle>

    <vehicle id="flow_flatten_r_E_to_S.1" type="container" depart="39.00" departLane="1" departPos="134.7579" departSpeed="6.2634" speedFactor="0.9146" arrival="99.00">
        <route edges="E_in S_out"/>
    </vehicle>

    <vehicle id="flow_flatten_r_W_to_E.4" type="moto" depart="61.00" departLane="1" departPos="65.5698" departSpeed="2.068" speedFactor="0.8882" arrival="100.00">
        <route edges="W_in E_out"/>
    </vehicle>

    <vehicle id="flow_flatten_r_W_to_E.5" type="car" depart="76.00" departLane="1" departPos="152.0111" departSpeed="4.5723" speedFactor="0.8975" arrival="102.00">
        <route edges="W_in E_out"/>
    </vehicle>

    <vehicle id="flow_flatten_r_E_to_N.2" type="truck" depart="74.00" departLane="0" departPos="78.0885" departSpeed="11.2761" speedFactor="0.8923" arrival="104.00">
        <route edges="E_in N_out"/>
    </vehicle>

    <vehicle id="flow_flatten_r_N_to_S.3" type="moto" depart="33.00" departLane="0" departPos="69.2372" departSpeed="6.0614" speedFactor="1.0453" arrival="107.00">
        <route edges="N_in S_out"/>
    </vehicle>

    <vehicle id="flow_flatten_r_N_to_S.4" type="car" depart="44.00" departLane="0" departPos="148.0778" departSpeed="9.6399" speedFactor="1.0479" arrival="108.00">
        <route edges="N_in S_out"/>
    </vehicle>

    <vehicle id="flow_flatten_r_W_to_N.0" type="container" depart="0.00" departLane="1" departPos="182.8773" departSpeed="4.6108" speedFactor="0.8227" arrival="110.00">
        <route edges="W_in N_out"/>
    </vehicle>

    <vehicle id="flow_flatten_r_S_to_E.1" type="bus" depart="27.00" departLane="0" departPos="16.309" departSpeed="4.5507" speedFactor="0.9657" arrival="111.00">
        <route edges="S_in E_out"/>
    </vehicle>

    <vehicle id="flow_flatten_r_N_to_S.5" type="emergency" depart="55.00" departLane="1" departPos="121.5569" departSpeed="1.5714" speedFactor="1.0989" arrival="111.00">
        <route edges="N_in S_out"/>
    </vehicle>

    <vehicle id="flow_flatten_r_N_to_W.2" type="truck" depart="55.00" departLane="0" departPos="104.1356" departSpeed="12.3393" speedFactor="0.9396" arrival="112.00">
        <route edges="N_in W_out"/>
    </vehicle>

    <vehicle id="flow_flatten_r_S_to_E.2" type="truck" depart="53.00" departLane="0" departPos="160.3044" departSpeed="7.4312" speedFactor="0.9194" arrival="114.00">
        <route edges="S_in E_out"/>
    </vehicle>

    <vehicle id="flow_flatten_r_N_to_S.6" type="moto" depart="65.00" departLane="1" departPos="2.2119" departSpeed="9.3975" speedFactor="1.0265" arrival="114.00">
        <route edges="N_in S_out"/>
    </vehicle>

    <vehicle id="flow_flatten_r_N_to_S.7" type="moto" depart="76.00" departLane="1" departPos="137.1078" departSpeed="4.9645" speedFactor="1.1043" arrival="115.00">
        <route edges="N_in S_out"/>
    </vehicle>

    <vehicle id="flow_flatten_r_S_to_E.3" type="car" depart="79.00" departLane="1" departPos="47.4954" departSpeed="4.3691" speedFactor="0.9797" arrival="116.00">
        <route edges="S_in E_out"/>
    </vehicle>

    <vehicle id="flow_flatten_r_S_to_N.8" type="moto" depart="85.00" departLane="0" departPos="6.5659" departSpeed="1.2493" speedFactor="1.0626" arrival="116.00">
        <route edges="S_in N_out"/>
    </vehicle>

    <vehicle id="flow_flatten_r_S_to_N.7" type="moto" depart="75.00" departLane="1" departPos="159.9604" departSpeed="6.6851" speedFactor="1.0390" arrival="119.00">
        <route edges="S_in N_out"/>
    </vehicle>

    <vehicle id="flow_flatten_r_N_to_S.8" type="moto" depart="87.00" departLane="1" departPos="22.6438" departSpeed="11.0035" speedFactor="1.0682" arrival="120.00">
        <route edges="N_in S_out"/>
    </vehicle>

    <vehicle id="flow_flatten_r_S_to_N.4" type="moto" depart="43.00" departLane="1" departPos="77.9408" departSpeed="4.4335" speedFactor="1.0764" arrival="122.00">
        <route edges="S_in N_out"/>
    </vehicle>

    <vehicle id="flow_flatten_r_N_to_W.3" type="moto" depart="83.00" departLane="1" departPos="150.3544" departSpeed="0.2414" speedFactor="0.8003" arrival="122.00">
        <route edges="N_in W_out"/>
    </vehicle>

    <vehicle id="flow_flatten_r_S_to_S.1" type="moto" depart="53.00" departLane="1" departPos="111.6918" departSpeed="5.9674" speedFactor="0.9964" arrival="125.00">
        <route edges="S_in S_out"/>
    </vehicle>

    <vehicle id="flow_flatten_r_S_to_W.1" type="moto" depart="27.00" departLane="0" departPos="34.2537" departSpeed="2.672" speedFactor="0.9279" arrival="126.00">
        <route edges="S_in W_out"/>
    </vehicle>

    <vehicle id="flow_flatten_r_S_to_N.6" type="moto" depart="64.00" departLane="0" departPos="64.2471" departSpeed="6.1278" speedFactor="0.9374" arrival="126.00">
        <route edges="S_in N_out"/>
    </vehicle>

    <vehicle id="flow_flatten_r_S_to_W.2" type="moto" depart="54.00" departLane="1" departPos="112.3734" departSpeed="6.0297" speedFactor="1.1432" arrival="127.00">
        <route edges="S_in W_out"/>
    </vehicle>

    <vehicle id="flow_flatten_r_S_to_N.9" type="moto" depart="96.00" departLane="0" departPos="36.1365" departSpeed="9.6727" speedFactor="1.1705" arrival="127.00">
        <route edges="S_in N_out"/>
    </vehicle>

    <vehicle id="flow_flatten_r_S_to_N.5" type="moto" depart="53.00" departLane="1" departPos="65.3279" departSpeed="12.9273" speedFactor="1.0283" arrival="128.00">
        <route edges="S_in N_out"/>
    </vehicle>

    <vehicle id="flow_flatten_r_S_to_N.10" type="emergency" depart="106.00" departLane="0" departPos="144.2877" departSpeed="4.7827" speedFactor="1.1380" arrival="130.00">
        <route edges="S_in N_out"/>
    </vehicle>

    <vehicle id="flow_flatten_r_S_to_E.4" type="moto" depart="105.00" departLane="0" departPos="43.7958" departSpeed="2.895" speedFactor="0.9385" arrival="138.00">
        <route edges="S_in E_out"/>
    </vehicle>

    <vehicle id="flow_flatten_r_N_to_S.9" type="car" depart="98.00" departLane="1" departPos="20.793" departSpeed="6.0156" speedFactor="1.0972" arrival="139.00">
        <route edges="N_in S_out"/>
    </vehicle>

    <vehicle id="flow_flatten_r_N_to_E.2" type="container" depart="53.00" departLane="0" departPos="167.2268" departSpeed="1.9044" speedFactor="0.9706" arrival="140.00">
        <route edges="N_in E_out"/>
    </vehicle>

    <vehicle id="flow_flatten_r_S_to_N.11" type="moto" depart="117.00" departLane="1" departPos="123.8246" departSpeed="5.1052" speedFactor="1.1571" arrival="140.00">
        <route edges="S_in N_out"/>
    </vehicle>

    <vehicle id="flow_flatten_r_N_to_S.10" type="moto" depart="109.00" departLane="0" departPos="65.0172" departSpeed="3.2312" speedFactor="1.2976" arrival="142.00">
        <route edges="N_in S_out"/>
    </vehicle>

    <vehicle id="flow_flatten_r_N_to_W.4" type="moto" depart="110.00" departLane="1" departPos="150.7313" departSpeed="0.4613" speedFactor="0.8391" arrival="145.00">
        <route edges="N_in W_out"/>
    </vehicle>

    <vehicle id="flow_flatten_r_N_to_E.4" type="moto" depart="105.00" departLane="0" departPos="178.6166" departSpeed="7.2954" speedFactor="0.9618" arrival="146.00">
        <route edges="N_in E_out"/>
    </vehicle>

    <vehicle id="flow_flatten_r_N_to_N.1" type="bus" depart="53.00" departLane="0" departPos="8.0759" departSpeed="5.7989" speedFactor="0.8691" arrival="151.00">
        <route edges="N_in N_out"/>
    </vehicle>

    <vehicle id="flow_flatten_r_W_to_S.2" type="moto" depart="75.00" departLane="1" departPos="29.0743" departSpeed="2.6017" speedFactor="0.9020" arrival="153.00">
        <route edges="W_in S_out"/>
    </vehicle>

    <vehicle id="flow_flatten_r_S_to_W.3" type="bus" depart="81.00" departLane="1" departPos="41.8299" departSpeed="11.8205" speedFactor="0.9040" arrival="153.00">
        <route edges="S_in W_out"/>
    </vehicle>

    <vehicle id="flow_flatten_r_W_to_S.3" type="moto" depart="112.00" departLane="0" departPos="151.0147" departSpeed="10.9208" speedFactor="1.1157" arrival="154.00">
        <route edges="W_in S_out"/>
    </vehicle>

    <vehicle id="flow_flatten_r_E_to_W.6" type="moto" depart="88.00" departLane="1" departPos="111.5719" departSpeed="0.0849" speedFactor="0.8330" arrival="155.00">
        <route edges="E_in W_out"/>
    </vehicle>

    <vehicle id="flow_flatten_r_W_to_E.6" type="moto" depart="92.00" departLane="0" departPos="150.3232" departSpeed="5.3098" speedFactor="0.8878" arrival="156.00">
        <route edges="W_in E_out"/>
    </vehicle>

    <vehicle id="flow_flatten_r_E_to_N.3" type="truck" depart="111.00" departLane="0" departPos="96.1141" departSpeed="7.8439" speedFactor="0.9670" arrival="156.00">
        <route edges="E_in N_out"/>
    </vehicle>

    <vehicle id="flow_flatten_r_W_to_W.0" type="moto" depart="0.00" departLane="0" departPos="16.8786" departSpeed="4.7577" speedFactor="0.8472" arrival="158.00">
        <route edges="W_in W_out"/>
    </vehicle>

    <vehicle id="flow_flatten_r_W_to_E.7" type="moto" depart="107.00" departLane="1" departPos="109.1161" departSpeed="2.8633" speedFactor="0.9730" arrival="158.00">
        <route edges="W_in E_out"/>
    </vehicle>

    <vehicle id="flow_flatten_r_E_to_S.2" type="moto" depart="77.00" departLane="0" departPos="18.5245" departSpeed="1.7505" speedFactor="1.0983" arrival="160.00">
        <route edges="E_in S_out"/>
    </vehicle>

    <vehicle id="flow_flatten_r_E_to_W.8" type="container" depart="117.00" departLane="0" departPos="29.1188" departSpeed="4.1084" speedFactor="1.0240" arrival="162.00">
        <route edges="E_in W_out"/>
    </vehicle>

    <vehicle id="flow_flatten_r_E_to_W.7" type="truck" depart="103.00" departLane="1" departPos="109.812" departSpeed="0.1725" speedFactor="1.0651" arrival="166.00">
        <route edges="E_in W_out"/>
    </vehicle>

    <vehicle id="flow_flatten_r_W_to_E.8" type="bus" depart="122.00" departLane="0" departPos="146.8151" departSpeed="4.4824" speedFactor="0.9032" arrival="167.00">
        <route edges="W_in E_out"/>
    </vehicle>

    <vehicle id="flow_flatten_r_E_to_W.9" type="moto" depart="132.00" departLane="0" departPos="57.4616" departSpeed="5.6767" speedFactor="1.0039" arrival="167.00">
        <route edges="E_in W_out"/>
    </vehicle>

    <vehicle id="flow_flatten_r_W_to_E.9" type="moto" depart="137.00" departLane="0" departPos="3.1111" departSpeed="8.7245" speedFactor="1.0387" arrival="169.00">
        <route edges="W_in E_out"/>
    </vehicle>

    <vehicle id="flow_flatten_r_W_to_S.4" type="moto" depart="150.00" departLane="1" departPos="170.5857" departSpeed="1.9804" speedFactor="1.0699" arrival="170.00">
        <route edges="W_in S_out"/>
    </vehicle>

    <vehicle id="flow_flatten_r_E_to_S.3" type="moto" depart="115.00" departLane="1" departPos="64.7255" departSpeed="5.1608" speedFactor="0.9645" arrival="172.00">
        <route edges="E_in S_out"/>
    </vehicle>

    <vehicle id="flow_flatten_r_W_to_N.1" type="bus" depart="40.00" departLane="1" departPos="108.7646" departSpeed="10.3425" speedFactor="0.8515" arrival="177.00">
        <route edges="W_in N_out"/>
    </vehicle>

    <vehicle id="flow_flatten_r_E_to_W.10" type="bus" depart="147.00" departLane="1" departPos="162.1669" departSpeed="8.8281" speedFactor="0.9784" arrival="180.00">
        <route edges="E_in W_out"/>
    </vehicle>

    <vehicle id="flow_flatten_r_E_to_S.4" type="moto" depart="153.00" departLane="0" departPos="170.7684" departSpeed="6.7656" speedFactor="1.2552" arrival="180.00">
        <route edges="E_in S_out"/>
    </vehicle>

    <vehicle id="flow_flatten_r_W_to_N.3" type="moto" depart="118.00" departLane="0" departPos="169.4272" departSpeed="5.2265" speedFactor="0.9897" arrival="183.00">
        <route edges="W_in N_out"/>
    </vehicle>

    <vehicle id="flow_flatten_r_E_to_N.4" type="moto" depart="148.00" departLane="1" departPos="11.9624" departSpeed="0.8011" speedFactor="1.0140" arrival="183.00">
        <route edges="E_in N_out"/>
    </vehicle>

    <vehicle id="flow_flatten_r_W_to_E.10" type="truck" depart="152.00" departLane="1" departPos="38.4375" departSpeed="7.5038" speedFactor="1.0532" arrival="185.00">
        <route edges="W_in E_out"/>
    </vehicle>

    <vehicle id="flow_flatten_r_E_to_E.2" type="moto" depart="150.00" departLane="0" departPos="169.1917" departSpeed="9.8404" speedFactor="1.0047" arrival="188.00">
        <route edges="E_in E_out"/>
    </vehicle>

    <vehicle id="flow_flatten_r_E_to_W.11" type="moto" depart="161.00" departLane="1" departPos="0.9771" departSpeed="9.8564" speedFactor="1.2148" arrival="188.00">
        <route edges="E_in W_out"/>
    </vehicle>

    <vehicle id="flow_flatten_r_W_to_E.11" type="moto" depart="168.00" departLane="0" departPos="184.144" departSpeed="0.6229" speedFactor="0.8543" arrival="190.00">
        <route edges="W_in E_out"/>
    </vehicle>

    <vehicle id="flow_flatten_r_W_to_W.1" type="moto" depart="76.00" departLane="0" departPos="24.5526" departSpeed="8.2195" speedFactor="1.0203" arrival="194.00">
        <route edges="W_in W_out"/>
    </vehicle>

    <vehicle id="flow_flatten_r_S_to_E.5" type="moto" depart="131.00" departLane="0" departPos="169.9316" departSpeed="11.0558" speedFactor="1.0387" arrival="196.00">
        <route edges="S_in E_out"/>
    </vehicle>

    <vehicle id="flow_flatten_r_S_to_S.2" type="moto" depart="106.00" departLane="1" departPos="69.3051" departSpeed="4.4852" speedFactor="1.0413" arrival="197.00">
        <route edges="S_in S_out"/>
    </vehicle>

    <vehicle id="flow_flatten_r_S_to_N.12" type="car" depart="128.00" departLane="0" departPos="5.0473" departSpeed="11.4527" speedFactor="1.0323" arrival="199.00">
        <route edges="S_in N_out"/>
    </vehicle>

    <vehicle id="flow_flatten_r_N_to_S.11" type="bus" depart="120.00" departLane="1" departPos="140.1793" departSpeed="0.6282" speedFactor="0.9315" arrival="202.00">
        <route edges="N_in S_out"/>
    </vehicle>

    <vehicle id="flow_flatten_r_N_to_W.5" type="bus" depart="137.00" departLane="0" departPos="172.0661" departSpeed="1.4926" speedFactor="1.0325" arrival="203.00">
        <route edges="N_in W_out"/>
    </vehicle>

    <vehicle id="flow_flatten_r_S_to_N.13" type="bus" depart="138.00" departLane="1" departPos="60.9644" departSpeed="10.91" speedFactor="0.8196" arrival="207.00">
        <route edges="S_in N_out"/>
    </vehicle>

    <vehicle id="flow_flatten_r_N_to_S.15" type="moto" depart="163.00" departLane="0" departPos="108.1078" departSpeed="1.8146" speedFactor="0.8917" arrival="207.00">
        <route edges="N_in S_out"/>
    </vehicle>

    <vehicle id="flow_flatten_r_S_to_E.6" type="car" depart="157.00" departLane="1" departPos="167.1176" departSpeed="0.7428" speedFactor="0.8868" arrival="208.00">
        <route edges="S_in E_out"/>
    </vehicle>

    <vehicle id="flow_flatten_r_S_to_N.15" type="moto" depart="159.00" departLane="0" departPos="114.397" departSpeed="14.6495" speedFactor="1.0856" arrival="209.00">
        <route edges="S_in N_out"/>
    </vehicle>

    <vehicle id="flow_flatten_r_N_to_S.16" type="moto" depart="174.00" departLane="0" departPos="39.6761" departSpeed="8.4584" speedFactor="1.1523" arrival="209.00">
        <route edges="N_in S_out"/>
    </vehicle>

    <vehicle id="flow_flatten_r_N_to_W.6" type="truck" depart="165.00" departLane="1" departPos="7.5649" departSpeed="1.5695" speedFactor="0.9465" arrival="210.00">
        <route edges="N_in W_out"/>
    </vehicle>

    <vehicle id="flow_flatten_r_N_to_S.13" type="moto" depart="141.00" departLane="1" departPos="66.1547" departSpeed="12.3786" speedFactor="1.0448" arrival="212.00">
        <route edges="N_in S_out"/>
    </vehicle>

    <vehicle id="flow_flatten_r_N_to_S.12" type="moto" depart="130.00" departLane="1" departPos="75.2144" departSpeed="6.6948" speedFactor="1.0281" arrival="214.00">
        <route edges="N_in S_out"/>
    </vehicle>

    <vehicle id="flow_flatten_r_S_to_N.16" type="car" depart="170.00" departLane="1" departPos="127.7831" departSpeed="5.9016" speedFactor="0.8047" arrival="215.00">
        <route edges="S_in N_out"/>
    </vehicle>

    <vehicle id="flow_flatten_r_S_to_E.7" type="car" depart="183.00" departLane="1" departPos="80.6527" departSpeed="2.3529" speedFactor="1.1275" arrival="215.00">
        <route edges="S_in E_out"/>
    </vehicle>

    <vehicle id="flow_flatten_r_S_to_N.17" type="bus" depart="181.00" departLane="0" departPos="99.1978" departSpeed="6.3593" speedFactor="0.8815" arrival="217.00">
        <route edges="S_in N_out"/>
    </vehicle>

    <vehicle id="flow_flatten_r_S_to_N.18" type="bus" depart="191.00" departLane="0" departPos="15.5939" departSpeed="13.63" speedFactor="1.0167" arrival="219.00">
        <route edges="S_in N_out"/>
    </vehicle>

    <vehicle id="flow_flatten_r_N_to_S.14" type="truck" depart="152.00" departLane="0" departPos="28.3376" departSpeed="10.9032" speedFactor="0.9615" arrival="222.00">
        <route edges="N_in S_out"/>
    </vehicle>

    <vehicle id="flow_flatten_r_N_to_S.17" type="moto" depart="185.00" departLane="1" departPos="20.6867" departSpeed="12.1104" speedFactor="1.0747" arrival="222.00">
        <route edges="N_in S_out"/>
    </vehicle>

    <vehicle id="flow_flatten_r_N_to_W.7" type="bus" depart="192.00" departLane="1" departPos="80.2096" departSpeed="3.7271" speedFactor="0.9234" arrival="227.00">
        <route edges="N_in W_out"/>
    </vehicle>

    <vehicle id="flow_flatten_r_N_to_S.18" type="car" depart="195.00" departLane="1" departPos="30.7552" departSpeed="3.3232" speedFactor="1.0262" arrival="229.00">
        <route edges="N_in S_out"/>
    </vehicle>

    <vehicle id="flow_flatten_r_S_to_N.14" type="truck" depart="149.00" departLane="1" departPos="102.4537" departSpeed="0.5474" speedFactor="0.9137" arrival="230.00">
        <route edges="S_in N_out"/>
    </vehicle>

    <vehicle id="flow_flatten_r_S_to_N.19" type="moto" depart="202.00" departLane="0" departPos="64.2415" departSpeed="4.9607" speedFactor="0.8950" arrival="232.00">
        <route edges="S_in N_out"/>
    </vehicle>

    <vehicle id="flow_flatten_r_N_to_S.19" type="moto" depart="206.00" departLane="1" departPos="96.8886" departSpeed="13.3221" speedFactor="1.2172" arrival="232.00">
        <route edges="N_in S_out"/>
    </vehicle>

    <vehicle id="flow_flatten_r_N_to_N.2" type="moto" depart="106.00" departLane="0" departPos="50.1096" departSpeed="5.2402" speedFactor="1.0873" arrival="233.00">
        <route edges="N_in N_out"/>
    </vehicle>

    <vehicle id="flow_flatten_r_N_to_E.3" type="car" depart="79.00" departLane="1" departPos="37.0366" departSpeed="3.0894" speedFactor="0.9759" arrival="234.00">
        <route edges="N_in E_out"/>
    </vehicle>

    <vehicle id="flow_flatten_r_N_to_E.5" type="car" depart="131.00" departLane="1" departPos="159.8742" departSpeed="5.3241" speedFactor="0.8850" arrival="240.00">
        <route edges="N_in E_out"/>
    </vehicle>

    <vehicle id="flow_flatten_r_S_to_W.4" type="truck" depart="108.00" departLane="1" departPos="5.9732" departSpeed="0.4392" speedFactor="1.0019" arrival="241.00">
        <route edges="S_in W_out"/>
    </vehicle>

    <vehicle id="flow_flatten_r_E_to_W.12" type="car" depart="176.00" departLane="1" departPos="80.4314" departSpeed="10.9811" speedFactor="0.9718" arrival="243.00">
        <route edges="E_in W_out"/>
    </vehicle>

    <vehicle id="flow_flatten_r_W_to_E.12" type="car" depart="183.00" departLane="0" departPos="15.6422" departSpeed="13.566" speedFactor="0.9838" arrival="243.00">
        <route edges="W_in E_out"/>
    </vehicle>

    <vehicle id="flow_flatten_r_W_to_S.5" type="car" depart="187.00" departLane="1" departPos="36.0857" departSpeed="3.7779" speedFactor="0.9559" arrival="245.00">
        <route edges="W_in S_out"/>
    </vehicle>

    <vehicle id="flow_flatten_r_E_to_W.13" type="bus" depart="191.00" departLane="0" departPos="174.8493" departSpeed="4.6242" speedFactor="0.9363" arrival="250.00">
        <route edges="E_in W_out"/>
    </vehicle>

    <vehicle id="flow_flatten_r_W_to_E.13" type="truck" depart="198.00" departLane="0" departPos="112.6203" departSpeed="2.9091" speedFactor="0.9035" arrival="251.00">
        <route edges="W_in E_out"/>
    </vehicle>

    <vehicle id="flow_flatten_r_W_to_S.6" type="moto" depart="224.00" departLane="0" departPos="96.8176" departSpeed="2.2759" speedFactor="1.0262" arrival="251.00">
        <route edges="W_in S_out"/>
    </vehicle>

    <vehicle id="flow_flatten_r_W_to_W.2" type="moto" depart="151.00" departLane="0" departPos="128.7404" departSpeed="4.1282" speedFactor="1.1365" arrival="252.00">
        <route edges="W_in W_out"/>
    </vehicle>

    <vehicle id="flow_flatten_r_E_to_N.5" type="car" depart="185.00" departLane="1" departPos="12.5958" departSpeed="2.1699" speedFactor="0.8963" arrival="252.00">
        <route edges="E_in N_out"/>
    </vehicle>

    <vehicle id="flow_flatten_r_W_to_N.2" type="moto" depart="79.00" departLane="0" departPos="36.1232" departSpeed="6.53" speedFactor="1.0085" arrival="253.00">
        <route edges="W_in N_out"/>
    </vehicle>

    <vehicle id="flow_flatten_r_W_to_E.14" type="moto" depart="213.00" departLane="1" departPos="127.6195" departSpeed="2.052" speedFactor="1.1783" arrival="254.00">
        <route edges="W_in E_out"/>
    </vehicle>

    <vehicle id="flow_flatten_r_E_to_N.6" type="car" depart="222.00" departLane="1" departPos="38.6796" departSpeed="9.9963" speedFactor="1.0350" arrival="254.00">
        <route edges="E_in N_out"/>
    </vehicle>

    <vehicle id="flow_flatten_r_E_to_W.14" type="moto" depart="205.00" departLane="1" departPos="37.6432" departSpeed="6.1565" speedFactor="0.8697" arrival="259.00">
        <route edges="E_in W_out"/>
    </vehicle>
