<?xml version="1.0" encoding="UTF-8"?>

<!-- generated on 2025-12-09 05:23:49 by Eclipse SUMO sumo Version 1.18.0
<configuration xmlns:xsi="http://www.w3.org/2001/XMLSchema-instance" xsi:noNamespaceSchemaLocation="http://sumo.dlr.de/xsd/sumoConfiguration.xsd">

    <input>
        <net-file value="nets/60p2k/net.net.xml"/>
        <route-files value="nets/60p2k/route_60p2k.rou.xml"/>
    </input>

    <output>
        <summary-output value="result_baseline_50_1.9_0.4/summary_ep_5.xml"/>
        <tripinfo-output value="result_baseline_50_1.9_0.4/tripinfo_ep_5.xml"/>
        <vehroute-output value="result_baseline_50_1.9_0.4/vehroute_ep_5.xml"/>
    </output>

    <time>
        <begin value="0"/>
        <step-length value="1.0"/>
    </time>

    <processing>
        <scale value="1.9"/>
        <time-to-teleport value="600"/>
    </processing>

    <report>
        <verbose value="true"/>
    </report>

    <traci_server>
        <remote-port value="35911"/>
    </traci_server>

    <gui_only>
        <gui-settings-file value="nets/60p2k/gui-settings.xml"/>
    </gui_only>

</configuration>
-->

<tripinfos xmlns:xsi="http://www.w3.org/2001/XMLSchema-instance" xsi:noNamespaceSchemaLocation="http://sumo.dlr.de/xsd/tripinfo_file.xsd">
    <tripinfo id="flow_3_phase1_N_right.0" depart="0.00" departLane="N_in_0" departPos="103.38" departSpeed="3.75" departDelay="0.00" arrival="24.00" arrivalLane="W_out_0" arrivalPos="189.60" arrivalSpeed="14.93" duration="24.00" routeLength="284.85" waitingTime="0.00" waitingCount="0" stopTime="0.00" timeLoss="4.55" rerouteNo="0" devices="vehroute_flow_3_phase1_N_right.0 tripinfo_flow_3_phase1_N_right.0" vType="car" speedFactor="1.09" vaporized=""/>
    <tripinfo id="flow_8_phase1_S_uturn.0" depart="0.00" departLane="S_in_0" departPos="120.11" departSpeed="4.48" departDelay="0.00" arrival="24.00" arrivalLane="S_out_1" arrivalPos="189.60" arrivalSpeed="13.35" duration="24.00" routeLength="263.76" waitingTime="0.00" waitingCount="0" stopTime="0.00" timeLoss="4.90" rerouteNo="0" devices="vehroute_flow_8_phase1_S_uturn.0 tripinfo_flow_8_phase1_S_uturn.0" vType="moto" speedFactor="1.05" vaporized=""/>
    <tripinfo id="flow_5_phase1_S_straight.0" depart="0.00" departLane="S_in_1" departPos="107.37" departSpeed="7.21" departDelay="0.00" arrival="25.00" arrivalLane="N_out_1" arrivalPos="189.60" arrivalSpeed="15.54" duration="25.00" routeLength="292.63" waitingTime="0.00" waitingCount="0" stopTime="0.00" timeLoss="6.40" rerouteNo="0" devices="vehroute_flow_5_phase1_S_straight.0 tripinfo_flow_5_phase1_S_straight.0" vType="moto" speedFactor="1.15" vaporized=""/>
    <tripinfo id="flow_6_phase1_S_left.0" depart="0.00" departLane="S_in_1" departPos="166.01" departSpeed="0.74" departDelay="0.00" arrival="25.00" arrivalLane="W_out_1" arrivalPos="189.60" arrivalSpeed="11.97" duration="25.00" routeLength="232.54" waitingTime="0.00" waitingCount="0" stopTime="0.00" timeLoss="4.34" rerouteNo="0" devices="vehroute_flow_6_phase1_S_left.0 tripinfo_flow_6_phase1_S_left.0" vType="moto" speedFactor="0.88" vaporized=""/>
    <tripinfo id="flow_4_phase1_N_uturn.0" depart="0.00" departLane="N_in_1" departPos="127.60" departSpeed="0.08" departDelay="0.00" arrival="32.00" arrivalLane="N_out_1" arrivalPos="189.60" arrivalSpeed="11.78" duration="32.00" routeLength="256.27" waitingTime="2.00" waitingCount="1" stopTime="0.00" timeLoss="10.48" rerouteNo="0" devices="vehroute_flow_4_phase1_N_uturn.0 tripinfo_flow_4_phase1_N_uturn.0" vType="car" speedFactor="0.92" vaporized=""/>
    <tripinfo id="flow_2_phase1_N_left.0" depart="0.00" departLane="N_in_1" departPos="8.27" departSpeed="8.33" departDelay="0.00" arrival="33.00" arrivalLane="E_out_1" arrivalPos="189.60" arrivalSpeed="13.89" duration="33.00" routeLength="390.28" waitingTime="0.00" waitingCount="0" stopTime="0.00" timeLoss="4.38" rerouteNo="0" devices="vehroute_flow_2_phase1_N_left.0 tripinfo_flow_2_phase1_N_left.0" vType="moto" speedFactor="1.02" vaporized=""/>
    <tripinfo id="flow_1_phase1_N_straight.0" depart="0.00" departLane="N_in_0" departPos="8.62" departSpeed="8.51" departDelay="0.00" arrival="35.00" arrivalLane="S_out_0" arrivalPos="189.60" arrivalSpeed="11.65" duration="35.00" routeLength="391.38" waitingTime="0.00" waitingCount="0" stopTime="0.00" timeLoss="1.41" rerouteNo="0" devices="vehroute_flow_1_phase1_N_straight.0 tripinfo_flow_1_phase1_N_straight.0" vType="bus" speedFactor="0.86" vaporized=""/>
    <tripinfo id="flow_7_phase1_S_right.0" depart="0.00" departLane="S_in_0" departPos="8.76" departSpeed="8.07" departDelay="0.00" arrival="39.00" arrivalLane="E_out_0" arrivalPos="189.60" arrivalSpeed="11.18" duration="39.00" routeLength="379.47" waitingTime="0.00" waitingCount="0" stopTime="0.00" timeLoss="5.93" rerouteNo="0" devices="vehroute_flow_7_phase1_S_right.0 tripinfo_flow_7_phase1_S_right.0" vType="container" speedFactor="0.85" vaporized=""/>
    <tripinfo id="flow_5_phase1_S_straight.1" depart="14.00" departLane="S_in_1" departPos="31.93" departSpeed="9.28" departDelay="0.77" arrival="39.00" arrivalLane="N_out_1" arrivalPos="189.60" arrivalSpeed="15.80" duration="25.00" routeLength="368.07" waitingTime="0.00" waitingCount="0" stopTime="0.00" timeLoss="1.45" rerouteNo="0" devices="vehroute_flow_5_phase1_S_straight.1 tripinfo_flow_5_phase1_S_straight.1" vType="moto" speedFactor="1.19" vaporized=""/>
    <tripinfo id="flow_1_phase1_N_straight.1" depart="14.00" departLane="N_in_1" departPos="58.36" departSpeed="11.64" departDelay="0.48" arrival="44.00" arrivalLane="S_out_0" arrivalPos="189.60" arrivalSpeed="11.00" duration="30.00" routeLength="341.64" waitingTime="0.00" waitingCount="0" stopTime="0.00" timeLoss="1.51" rerouteNo="0" devices="vehroute_flow_1_phase1_N_straight.1 tripinfo_flow_1_phase1_N_straight.1" vType="moto" speedFactor="0.87" vaporized=""/>
    <tripinfo id="flow_1_phase1_N_straight.2" depart="28.00" departLane="N_in_1" departPos="107.53" departSpeed="1.11" departDelay="0.97" arrival="55.00" arrivalLane="S_out_0" arrivalPos="189.60" arrivalSpeed="12.20" duration="27.00" routeLength="292.47" waitingTime="0.00" waitingCount="0" stopTime="0.00" timeLoss="3.43" rerouteNo="0" devices="vehroute_flow_1_phase1_N_straight.2 tripinfo_flow_1_phase1_N_straight.2" vType="moto" speedFactor="0.93" vaporized=""/>
    <tripinfo id="flow_3_phase1_N_right.1" depart="35.00" departLane="N_in_0" departPos="166.00" departSpeed="1.28" departDelay="0.82" arrival="58.00" arrivalLane="W_out_0" arrivalPos="189.60" arrivalSpeed="11.66" duration="23.00" routeLength="222.23" waitingTime="0.00" waitingCount="0" stopTime="0.00" timeLoss="4.30" rerouteNo="0" devices="vehroute_flow_3_phase1_N_right.1 tripinfo_flow_3_phase1_N_right.1" vType="moto" speedFactor="0.88" vaporized=""/>
    <tripinfo id="flow_14_phase1_W_left.0" depart="0.00" departLane="W_in_1" departPos="182.88" departSpeed="5.61" departDelay="0.00" arrival="60.00" arrivalLane="N_out_1" arrivalPos="189.60" arrivalSpeed="14.02" duration="60.00" routeLength="215.67" waitingTime="37.00" waitingCount="1" stopTime="0.00" timeLoss="43.88" rerouteNo="0" devices="vehroute_flow_14_phase1_W_left.0 tripinfo_flow_14_phase1_W_left.0" vType="moto" speedFactor="1.01" vaporized=""/>
    <tripinfo id="flow_15_phase1_W_right.0" depart="0.00" departLane="W_in_0" departPos="108.38" departSpeed="2.63" departDelay="0.00" arrival="63.00" arrivalLane="S_out_0" arrivalPos="189.60" arrivalSpeed="10.80" duration="63.00" routeLength="279.85" waitingTime="30.00" waitingCount="1" stopTime="0.00" timeLoss="37.47" rerouteNo="0" devices="vehroute_flow_15_phase1_W_right.0 tripinfo_flow_15_phase1_W_right.0" vType="moto" speedFactor="0.85" vaporized=""/>
    <tripinfo id="flow_5_phase1_S_straight.3" depart="40.00" departLane="S_in_0" departPos="184.19" departSpeed="8.58" departDelay="0.31" arrival="64.00" arrivalLane="N_out_0" arrivalPos="189.60" arrivalSpeed="14.44" duration="24.00" routeLength="215.81" waitingTime="3.00" waitingCount="1" stopTime="0.00" timeLoss="9.45" rerouteNo="0" devices="vehroute_flow_5_phase1_S_straight.3 tripinfo_flow_5_phase1_S_straight.3" vType="moto" speedFactor="1.08" vaporized=""/>
    <tripinfo id="flow_1_phase1_N_straight.3" depart="41.00" departLane="N_in_0" departPos="65.01" departSpeed="6.58" departDelay="0.45" arrival="64.00" arrivalLane="S_out_0" arrivalPos="189.60" arrivalSpeed="15.15" duration="23.00" routeLength="334.99" waitingTime="0.00" waitingCount="0" stopTime="0.00" timeLoss="1.98" rerouteNo="0" devices="vehroute_flow_1_phase1_N_straight.3 tripinfo_flow_1_phase1_N_straight.3" vType="moto" speedFactor="1.20" vaporized=""/>
    <tripinfo id="flow_9_phase1_E_straight.0" depart="0.00" departLane="E_in_0" departPos="168.29" departSpeed="9.83" departDelay="0.00" arrival="65.00" arrivalLane="W_out_0" arrivalPos="189.60" arrivalSpeed="12.45" duration="65.00" routeLength="231.71" waitingTime="35.00" waitingCount="1" stopTime="0.00" timeLoss="46.20" rerouteNo="0" devices="vehroute_flow_9_phase1_E_straight.0 tripinfo_flow_9_phase1_E_straight.0" vType="truck" speedFactor="0.90" vaporized=""/>
    <tripinfo id="flow_10_phase1_E_left.0" depart="0.00" departLane="E_in_0" departPos="44.88" departSpeed="7.69" departDelay="0.00" arrival="65.00" arrivalLane="S_out_1" arrivalPos="189.60" arrivalSpeed="13.74" duration="65.00" routeLength="353.67" waitingTime="27.00" waitingCount="1" stopTime="0.00" timeLoss="39.06" rerouteNo="0" devices="vehroute_flow_10_phase1_E_left.0 tripinfo_flow_10_phase1_E_left.0" vType="truck" speedFactor="1.02" vaporized=""/>
    <tripinfo id="flow_5_phase1_S_straight.2" depart="27.00" departLane="S_in_1" departPos="12.70" departSpeed="12.41" departDelay="0.54" arrival="66.00" arrivalLane="N_out_0" arrivalPos="189.60" arrivalSpeed="12.13" duration="39.00" routeLength="387.30" waitingTime="2.00" waitingCount="1" stopTime="0.00" timeLoss="9.62" rerouteNo="0" devices="vehroute_flow_5_phase1_S_straight.2 tripinfo_flow_5_phase1_S_straight.2" vType="moto" speedFactor="0.96" vaporized=""/>
    <tripinfo id="flow_2_phase1_N_left.1" depart="33.00" departLane="N_in_0" departPos="8.88" departSpeed="2.82" departDelay="0.32" arrival="67.00" arrivalLane="E_out_1" arrivalPos="189.60" arrivalSpeed="15.09" duration="34.00" routeLength="389.67" waitingTime="0.00" waitingCount="0" stopTime="0.00" timeLoss="7.60" rerouteNo="0" devices="vehroute_flow_2_phase1_N_left.1 tripinfo_flow_2_phase1_N_left.1" vType="moto" speedFactor="1.12" vaporized=""/>
    <tripinfo id="flow_6_phase1_S_left.1" depart="34.00" departLane="S_in_1" departPos="79.10" departSpeed="8.50" departDelay="0.55" arrival="70.00" arrivalLane="W_out_1" arrivalPos="189.60" arrivalSpeed="13.93" duration="36.00" routeLength="319.45" waitingTime="2.00" waitingCount="1" stopTime="0.00" timeLoss="12.76" rerouteNo="0" devices="vehroute_flow_6_phase1_S_left.1 tripinfo_flow_6_phase1_S_left.1" vType="moto" speedFactor="1.05" vaporized=""/>
    <tripinfo id="flow_7_phase1_S_right.1" depart="33.00" departLane="S_in_1" departPos="66.71" departSpeed="7.87" departDelay="0.51" arrival="73.00" arrivalLane="E_out_0" arrivalPos="189.60" arrivalSpeed="10.81" duration="40.00" routeLength="321.52" waitingTime="0.00" waitingCount="0" stopTime="0.00" timeLoss="9.03" rerouteNo="0" devices="vehroute_flow_7_phase1_S_right.1 tripinfo_flow_7_phase1_S_right.1" vType="container" speedFactor="0.78" vaporized=""/>
    <tripinfo id="flow_5_phase1_S_straight.4" depart="53.00" departLane="S_in_0" departPos="135.24" departSpeed="1.68" departDelay="0.08" arrival="82.00" arrivalLane="N_out_0" arrivalPos="189.60" arrivalSpeed="13.10" duration="29.00" routeLength="264.76" waitingTime="0.00" waitingCount="0" stopTime="0.00" timeLoss="9.04" rerouteNo="0" devices="vehroute_flow_5_phase1_S_straight.4 tripinfo_flow_5_phase1_S_straight.4" vType="container" speedFactor="0.97" vaporized=""/>
    <tripinfo id="flow_7_phase1_S_right.2" depart="65.00" departLane="S_in_1" departPos="160.30" departSpeed="13.98" departDelay="0.01" arrival="85.00" arrivalLane="E_out_0" arrivalPos="189.60" arrivalSpeed="13.48" duration="20.00" routeLength="227.93" waitingTime="0.00" waitingCount="0" stopTime="0.00" timeLoss="3.29" rerouteNo="0" devices="vehroute_flow_7_phase1_S_right.2 tripinfo_flow_7_phase1_S_right.2" vType="moto" speedFactor="1.03" vaporized=""/>
    <tripinfo id="flow_1_phase1_N_straight.4" depart="55.00" departLane="N_in_1" departPos="74.07" departSpeed="0.54" departDelay="0.94" arrival="87.00" arrivalLane="S_out_0" arrivalPos="189.60" arrivalSpeed="12.75" duration="32.00" routeLength="325.93" waitingTime="0.00" waitingCount="0" stopTime="0.00" timeLoss="6.47" rerouteNo="0" devices="vehroute_flow_1_phase1_N_straight.4 tripinfo_flow_1_phase1_N_straight.4" vType="truck" speedFactor="0.92" vaporized=""/>
    <tripinfo id="flow_2_phase1_N_left.2" depart="66.00" departLane="N_in_1" departPos="129.09" departSpeed="5.80" departDelay="0.64" arrival="87.00" arrivalLane="E_out_1" arrivalPos="189.60" arrivalSpeed="15.18" duration="21.00" routeLength="269.46" waitingTime="0.00" waitingCount="0" stopTime="0.00" timeLoss="2.70" rerouteNo="0" devices="vehroute_flow_2_phase1_N_left.2 tripinfo_flow_2_phase1_N_left.2" vType="emergency" speedFactor="1.10" vaporized=""/>
    <tripinfo id="flow_5_phase1_S_straight.5" depart="67.00" departLane="S_in_0" departPos="64.25" departSpeed="6.71" departDelay="0.86" arrival="93.00" arrivalLane="N_out_0" arrivalPos="189.60" arrivalSpeed="13.36" duration="26.00" routeLength="335.75" waitingTime="0.00" waitingCount="0" stopTime="0.00" timeLoss="1.98" rerouteNo="0" devices="vehroute_flow_5_phase1_S_straight.5 tripinfo_flow_5_phase1_S_straight.5" vType="moto" speedFactor="1.03" vaporized=""/>
    <tripinfo id="flow_1_phase1_N_straight.5" depart="68.00" departLane="N_in_1" departPos="84.66" departSpeed="1.92" departDelay="0.42" arrival="97.00" arrivalLane="S_out_0" arrivalPos="189.60" arrivalSpeed="11.95" duration="29.00" routeLength="315.34" waitingTime="0.00" waitingCount="0" stopTime="0.00" timeLoss="3.15" rerouteNo="0" devices="vehroute_flow_1_phase1_N_straight.5 tripinfo_flow_1_phase1_N_straight.5" vType="moto" speedFactor="0.90" vaporized=""/>
    <tripinfo id="flow_3_phase1_N_right.2" depart="69.00" departLane="N_in_1" departPos="69.49" departSpeed="4.23" departDelay="0.64" arrival="97.00" arrivalLane="W_out_0" arrivalPos="189.60" arrivalSpeed="14.17" duration="28.00" routeLength="318.74" waitingTime="0.00" waitingCount="0" stopTime="0.00" timeLoss="6.02" rerouteNo="0" devices="vehroute_flow_3_phase1_N_right.2 tripinfo_flow_3_phase1_N_right.2" vType="moto" speedFactor="1.10" vaporized=""/>
    <tripinfo id="flow_4_phase1_N_uturn.1" depart="67.00" departLane="N_in_1" departPos="65.57" departSpeed="2.18" departDelay="0.96" arrival="100.00" arrivalLane="N_out_1" arrivalPos="189.60" arrivalSpeed="11.99" duration="33.00" routeLength="318.30" waitingTime="0.00" waitingCount="0" stopTime="0.00" timeLoss="7.65" rerouteNo="0" devices="vehroute_flow_4_phase1_N_uturn.1 tripinfo_flow_4_phase1_N_uturn.1" vType="moto" speedFactor="0.94" vaporized=""/>
    <tripinfo id="flow_1_phase1_N_straight.6" depart="82.00" departLane="N_in_1" departPos="150.35" departSpeed="7.74" departDelay="0.90" arrival="102.00" arrivalLane="S_out_1" arrivalPos="189.60" arrivalSpeed="13.40" duration="20.00" routeLength="249.65" waitingTime="0.00" waitingCount="0" stopTime="0.00" timeLoss="1.39" rerouteNo="0" devices="vehroute_flow_1_phase1_N_straight.6 tripinfo_flow_1_phase1_N_straight.6" vType="car" speedFactor="0.98" vaporized=""/>
    <tripinfo id="flow_6_phase1_S_left.2" depart="67.00" departLane="S_in_1" departPos="174.17" departSpeed="8.14" departDelay="0.10" arrival="103.00" arrivalLane="W_out_1" arrivalPos="189.60" arrivalSpeed="12.02" duration="36.00" routeLength="224.38" waitingTime="8.00" waitingCount="1" stopTime="0.00" timeLoss="16.41" rerouteNo="0" devices="vehroute_flow_6_phase1_S_left.2 tripinfo_flow_6_phase1_S_left.2" vType="truck" speedFactor="0.89" vaporized=""/>
    <tripinfo id="flow_16_phase1_W_uturn.0" depart="0.00" departLane="W_in_0" departPos="126.68" departSpeed="11.71" departDelay="0.00" arrival="105.00" arrivalLane="W_out_1" arrivalPos="189.60" arrivalSpeed="14.37" duration="105.00" routeLength="257.19" waitingTime="78.00" waitingCount="2" stopTime="0.00" timeLoss="85.74" rerouteNo="0" devices="vehroute_flow_16_phase1_W_uturn.0 tripinfo_flow_16_phase1_W_uturn.0" vType="moto" speedFactor="1.04" vaporized=""/>
    <tripinfo id="flow_12_phase1_E_uturn.0" depart="0.00" departLane="E_in_0" departPos="5.65" departSpeed="13.76" departDelay="0.00" arrival="106.00" arrivalLane="E_out_1" arrivalPos="189.60" arrivalSpeed="13.85" duration="106.00" routeLength="378.22" waitingTime="63.00" waitingCount="2" stopTime="0.00" timeLoss="78.17" rerouteNo="0" devices="vehroute_flow_12_phase1_E_uturn.0 tripinfo_flow_12_phase1_E_uturn.0" vType="moto" speedFactor="1.03" vaporized=""/>
    <tripinfo id="flow_11_phase1_E_right.0" depart="0.00" departLane="E_in_1" departPos="144.95" departSpeed="4.02" departDelay="0.00" arrival="109.00" arrivalLane="N_out_0" arrivalPos="189.60" arrivalSpeed="13.22" duration="109.00" routeLength="243.28" waitingTime="72.00" waitingCount="2" stopTime="0.00" timeLoss="89.30" rerouteNo="0" devices="vehroute_flow_11_phase1_E_right.0 tripinfo_flow_11_phase1_E_right.0" vType="bus" speedFactor="0.96" vaporized=""/>
    <tripinfo id="flow_8_phase1_S_uturn.1" depart="66.00" departLane="S_in_1" departPos="19.51" departSpeed="7.49" departDelay="0.07" arrival="110.00" arrivalLane="S_out_1" arrivalPos="189.60" arrivalSpeed="12.29" duration="44.00" routeLength="364.36" waitingTime="1.00" waitingCount="1" stopTime="0.00" timeLoss="14.28" rerouteNo="0" devices="vehroute_flow_8_phase1_S_uturn.1 tripinfo_flow_8_phase1_S_uturn.1" vType="truck" speedFactor="0.94" vaporized=""/>
    <tripinfo id="flow_13_phase1_W_straight.0" depart="0.00" departLane="W_in_0" departPos="24.53" departSpeed="3.79" departDelay="0.00" arrival="114.00" arrivalLane="E_out_0" arrivalPos="189.60" arrivalSpeed="11.30" duration="114.00" routeLength="375.47" waitingTime="61.00" waitingCount="2" stopTime="0.00" timeLoss="81.05" rerouteNo="0" devices="vehroute_flow_13_phase1_W_straight.0 tripinfo_flow_13_phase1_W_straight.0" vType="container" speedFactor="0.82" vaporized=""/>
    <tripinfo id="flow_5_phase1_S_straight.6" depart="80.00" departLane="S_in_1" departPos="88.32" departSpeed="12.99" departDelay="0.63" arrival="115.00" arrivalLane="N_out_0" arrivalPos="189.60" arrivalSpeed="14.30" duration="35.00" routeLength="311.68" waitingTime="4.00" waitingCount="1" stopTime="0.00" timeLoss="13.73" rerouteNo="0" devices="vehroute_flow_5_phase1_S_straight.6 tripinfo_flow_5_phase1_S_straight.6" vType="moto" speedFactor="1.10" vaporized=""/>
    <tripinfo id="flow_5_phase1_S_straight.7" depart="93.00" departLane="S_in_0" departPos="140.51" departSpeed="9.42" departDelay="0.40" arrival="115.00" arrivalLane="N_out_1" arrivalPos="189.60" arrivalSpeed="11.87" duration="22.00" routeLength="259.49" waitingTime="0.00" waitingCount="0" stopTime="0.00" timeLoss="1.25" rerouteNo="0" devices="vehroute_flow_5_phase1_S_straight.7 tripinfo_flow_5_phase1_S_straight.7" vType="bus" speedFactor="0.90" vaporized=""/>
    <tripinfo id="flow_7_phase1_S_right.3" depart="98.00" departLane="S_in_1" departPos="140.12" departSpeed="11.77" departDelay="0.52" arrival="119.00" arrivalLane="E_out_0" arrivalPos="189.60" arrivalSpeed="14.32" duration="21.00" routeLength="248.11" waitingTime="0.00" waitingCount="0" stopTime="0.00" timeLoss="3.09" rerouteNo="0" devices="vehroute_flow_7_phase1_S_right.3 tripinfo_flow_7_phase1_S_right.3" vType="moto" speedFactor="1.07" vaporized=""/>
    <tripinfo id="flow_1_phase1_N_straight.7" depart="95.00" departLane="N_in_1" departPos="16.13" departSpeed="8.69" departDelay="0.39" arrival="124.00" arrivalLane="S_out_1" arrivalPos="189.60" arrivalSpeed="13.96" duration="29.00" routeLength="383.87" waitingTime="0.00" waitingCount="0" stopTime="0.00" timeLoss="2.75" rerouteNo="0" devices="vehroute_flow_1_phase1_N_straight.7 tripinfo_flow_1_phase1_N_straight.7" vType="moto" speedFactor="1.06" vaporized=""/>
    <tripinfo id="flow_3_phase1_N_right.3" depart="103.00" departLane="N_in_0" departPos="157.03" departSpeed="10.17" departDelay="0.45" arrival="124.00" arrivalLane="W_out_0" arrivalPos="189.60" arrivalSpeed="12.53" duration="21.00" routeLength="231.20" waitingTime="0.00" waitingCount="0" stopTime="0.00" timeLoss="2.91" rerouteNo="0" devices="vehroute_flow_3_phase1_N_right.3 tripinfo_flow_3_phase1_N_right.3" vType="moto" speedFactor="0.96" vaporized=""/>
    <tripinfo id="flow_2_phase1_N_left.3" depart="99.00" departLane="N_in_1" departPos="109.81" departSpeed="6.52" departDelay="0.97" arrival="127.00" arrivalLane="E_out_1" arrivalPos="189.60" arrivalSpeed="11.62" duration="28.00" routeLength="288.74" waitingTime="0.00" waitingCount="0" stopTime="0.00" timeLoss="2.95" rerouteNo="0" devices="vehroute_flow_2_phase1_N_left.3 tripinfo_flow_2_phase1_N_left.3" vType="moto" speedFactor="0.89" vaporized=""/>
    <tripinfo id="flow_1_phase1_N_straight.8" depart="109.00" departLane="N_in_1" departPos="150.73" departSpeed="0.53" departDelay="0.87" arrival="131.00" arrivalLane="S_out_0" arrivalPos="189.60" arrivalSpeed="12.59" duration="22.00" routeLength="249.27" waitingTime="0.00" waitingCount="0" stopTime="0.00" timeLoss="3.58" rerouteNo="0" devices="vehroute_flow_1_phase1_N_straight.8 tripinfo_flow_1_phase1_N_straight.8" vType="moto" speedFactor="0.97" vaporized=""/>
    <tripinfo id="flow_6_phase1_S_left.3" depart="101.00" departLane="S_in_0" departPos="35.64" departSpeed="3.52" departDelay="0.64" arrival="133.00" arrivalLane="W_out_1" arrivalPos="189.60" arrivalSpeed="14.75" duration="32.00" routeLength="362.91" waitingTime="0.00" waitingCount="0" stopTime="0.00" timeLoss="6.86" rerouteNo="0" devices="vehroute_flow_6_phase1_S_left.3 tripinfo_flow_6_phase1_S_left.3" vType="car" speedFactor="1.10" vaporized=""/>
    <tripinfo id="flow_5_phase1_S_straight.8" depart="106.00" departLane="S_in_1" departPos="5.97" departSpeed="0.50" departDelay="0.17" arrival="135.00" arrivalLane="N_out_0" arrivalPos="189.60" arrivalSpeed="15.61" duration="29.00" routeLength="394.03" waitingTime="0.00" waitingCount="0" stopTime="0.00" timeLoss="3.23" rerouteNo="0" devices="vehroute_flow_5_phase1_S_straight.8 tripinfo_flow_5_phase1_S_straight.8" vType="emergency" speedFactor="1.14" vaporized=""/>
    <tripinfo id="flow_5_phase1_S_straight.9" depart="120.00" departLane="S_in_0" departPos="151.01" departSpeed="11.27" departDelay="0.94" arrival="137.00" arrivalLane="N_out_0" arrivalPos="189.60" arrivalSpeed="14.71" duration="17.00" routeLength="248.99" waitingTime="0.00" waitingCount="0" stopTime="0.00" timeLoss="0.84" rerouteNo="0" devices="vehroute_flow_5_phase1_S_straight.9 tripinfo_flow_5_phase1_S_straight.9" vType="moto" speedFactor="1.30" vaporized=""/>
    <tripinfo id="flow_9_phase1_E_straight.1" depart="13.00" departLane="E_in_0" departPos="131.13" departSpeed="9.54" departDelay="0.12" arrival="149.00" arrivalLane="W_out_0" arrivalPos="189.60" arrivalSpeed="15.90" duration="136.00" routeLength="268.87" waitingTime="99.00" waitingCount="3" stopTime="0.00" timeLoss="119.01" rerouteNo="0" devices="vehroute_flow_9_phase1_E_straight.1 tripinfo_flow_9_phase1_E_straight.1" vType="moto" speedFactor="1.16" vaporized=""/>
    <tripinfo id="flow_13_phase1_W_straight.1" depart="14.00" departLane="W_in_1" departPos="121.65" departSpeed="2.86" departDelay="0.62" arrival="149.00" arrivalLane="E_out_1" arrivalPos="189.60" arrivalSpeed="14.46" duration="135.00" routeLength="278.35" waitingTime="100.00" waitingCount="3" stopTime="0.00" timeLoss="116.30" rerouteNo="0" devices="vehroute_flow_13_phase1_W_straight.1 tripinfo_flow_13_phase1_W_straight.1" vType="car" speedFactor="1.12" vaporized=""/>
    <tripinfo id="flow_11_phase1_E_right.1" depart="33.00" departLane="E_in_1" departPos="80.24" departSpeed="3.06" departDelay="0.51" arrival="149.00" arrivalLane="N_out_0" arrivalPos="189.60" arrivalSpeed="13.73" duration="116.00" routeLength="307.99" waitingTime="74.00" waitingCount="2" stopTime="0.00" timeLoss="93.79" rerouteNo="0" devices="vehroute_flow_11_phase1_E_right.1 tripinfo_flow_11_phase1_E_right.1" vType="moto" speedFactor="1.04" vaporized=""/>
    <tripinfo id="flow_15_phase1_W_right.1" depart="33.00" departLane="W_in_1" departPos="97.23" departSpeed="5.84" departDelay="0.16" arrival="149.00" arrivalLane="S_out_0" arrivalPos="189.60" arrivalSpeed="14.40" duration="116.00" routeLength="291.00" waitingTime="76.00" waitingCount="3" stopTime="0.00" timeLoss="95.17" rerouteNo="0" devices="vehroute_flow_15_phase1_W_right.1 tripinfo_flow_15_phase1_W_right.1" vType="moto" speedFactor="1.08" vaporized=""/>
    <tripinfo id="flow_5_phase1_S_straight.10" depart="133.00" departLane="S_in_1" departPos="170.84" departSpeed="4.33" departDelay="0.71" arrival="151.00" arrivalLane="N_out_1" arrivalPos="189.60" arrivalSpeed="13.26" duration="18.00" routeLength="229.16" waitingTime="0.00" waitingCount="0" stopTime="0.00" timeLoss="1.91" rerouteNo="0" devices="vehroute_flow_5_phase1_S_straight.10 tripinfo_flow_5_phase1_S_straight.10" vType="moto" speedFactor="1.03" vaporized=""/>
    <tripinfo id="flow_7_phase1_S_right.4" depart="130.00" departLane="S_in_0" departPos="169.43" departSpeed="13.33" departDelay="0.02" arrival="153.00" arrivalLane="E_out_0" arrivalPos="189.60" arrivalSpeed="12.64" duration="23.00" routeLength="218.80" waitingTime="0.00" waitingCount="0" stopTime="0.00" timeLoss="5.72" rerouteNo="0" devices="vehroute_flow_7_phase1_S_right.4 tripinfo_flow_7_phase1_S_right.4" vType="moto" speedFactor="0.96" vaporized=""/>
    <tripinfo id="flow_1_phase1_N_straight.9" depart="122.00" departLane="N_in_0" departPos="29.12" departSpeed="3.94" departDelay="0.36" arrival="154.00" arrivalLane="S_out_0" arrivalPos="189.60" arrivalSpeed="13.28" duration="32.00" routeLength="370.88" waitingTime="0.00" waitingCount="0" stopTime="0.00" timeLoss="4.07" rerouteNo="0" devices="vehroute_flow_1_phase1_N_straight.9 tripinfo_flow_1_phase1_N_straight.9" vType="truck" speedFactor="0.97" vaporized=""/>
    <tripinfo id="flow_2_phase1_N_left.4" depart="131.00" departLane="N_in_1" departPos="146.82" departSpeed="14.70" departDelay="0.29" arrival="154.00" arrivalLane="E_out_1" arrivalPos="189.60" arrivalSpeed="14.74" duration="23.00" routeLength="251.73" waitingTime="0.00" waitingCount="0" stopTime="0.00" timeLoss="6.02" rerouteNo="0" devices="vehroute_flow_2_phase1_N_left.4 tripinfo_flow_2_phase1_N_left.4" vType="moto" speedFactor="1.16" vaporized=""/>
    <tripinfo id="flow_3_phase1_N_right.4" depart="137.00" departLane="N_in_1" departPos="162.17" departSpeed="13.61" departDelay="0.27" arrival="157.00" arrivalLane="W_out_0" arrivalPos="189.60" arrivalSpeed="13.52" duration="20.00" routeLength="226.06" waitingTime="0.00" waitingCount="0" stopTime="0.00" timeLoss="2.50" rerouteNo="0" devices="vehroute_flow_3_phase1_N_right.4 tripinfo_flow_3_phase1_N_right.4" vType="moto" speedFactor="1.04" vaporized=""/>
    <tripinfo id="flow_6_phase1_S_left.4" depart="134.00" departLane="S_in_0" departPos="172.07" departSpeed="8.81" departDelay="0.19" arrival="158.00" arrivalLane="W_out_1" arrivalPos="189.60" arrivalSpeed="13.91" duration="24.00" routeLength="226.48" waitingTime="1.00" waitingCount="1" stopTime="0.00" timeLoss="7.12" rerouteNo="0" devices="vehroute_flow_6_phase1_S_left.4 tripinfo_flow_6_phase1_S_left.4" vType="moto" speedFactor="1.04" vaporized=""/>
    <tripinfo id="flow_4_phase1_N_uturn.2" depart="133.00" departLane="N_in_1" departPos="95.99" departSpeed="3.45" departDelay="0.92" arrival="161.00" arrivalLane="N_out_1" arrivalPos="189.60" arrivalSpeed="13.09" duration="28.00" routeLength="287.88" waitingTime="0.00" waitingCount="0" stopTime="0.00" timeLoss="6.44" rerouteNo="0" devices="vehroute_flow_4_phase1_N_uturn.2 tripinfo_flow_4_phase1_N_uturn.2" vType="car" speedFactor="1.03" vaporized=""/>
    <tripinfo id="flow_1_phase1_N_straight.10" depart="136.00" departLane="N_in_1" departPos="66.15" departSpeed="12.23" departDelay="0.84" arrival="163.00" arrivalLane="S_out_1" arrivalPos="189.60" arrivalSpeed="13.73" duration="27.00" routeLength="333.85" waitingTime="0.00" waitingCount="0" stopTime="0.00" timeLoss="3.38" rerouteNo="0" devices="vehroute_flow_1_phase1_N_straight.10 tripinfo_flow_1_phase1_N_straight.10" vType="bus" speedFactor="1.03" vaporized=""/>
    <tripinfo id="flow_5_phase1_S_straight.11" depart="146.00" departLane="S_in_0" departPos="169.19" departSpeed="9.58" departDelay="0.48" arrival="165.00" arrivalLane="N_out_0" arrivalPos="189.60" arrivalSpeed="13.06" duration="19.00" routeLength="230.81" waitingTime="0.00" waitingCount="0" stopTime="0.00" timeLoss="1.18" rerouteNo="0" devices="vehroute_flow_5_phase1_S_straight.11 tripinfo_flow_5_phase1_S_straight.11" vType="bus" speedFactor="0.98" vaporized=""/>
    <tripinfo id="flow_8_phase1_S_uturn.2" depart="132.00" departLane="S_in_0" departPos="5.05" departSpeed="10.98" departDelay="0.15" arrival="169.00" arrivalLane="S_out_1" arrivalPos="189.60" arrivalSpeed="13.23" duration="37.00" routeLength="378.82" waitingTime="1.00" waitingCount="1" stopTime="0.00" timeLoss="8.07" rerouteNo="0" devices="vehroute_flow_8_phase1_S_uturn.2 tripinfo_flow_8_phase1_S_uturn.2" vType="moto" speedFactor="0.99" vaporized=""/>
    <tripinfo id="flow_1_phase1_N_straight.11" depart="149.00" departLane="N_in_0" departPos="72.17" departSpeed="8.62" departDelay="0.32" arrival="176.00" arrivalLane="S_out_0" arrivalPos="189.60" arrivalSpeed="12.59" duration="27.00" routeLength="327.83" waitingTime="0.00" waitingCount="0" stopTime="0.00" timeLoss="1.06" rerouteNo="0" devices="vehroute_flow_1_phase1_N_straight.11 tripinfo_flow_1_phase1_N_straight.11" vType="truck" speedFactor="0.91" vaporized=""/>