<?xml version="1.0" encoding="UTF-8"?>

<!-- generated on 2025-12-09 05:24:17 by Eclipse SUMO sumo Version 1.18.0
<configuration xmlns:xsi="http://www.w3.org/2001/XMLSchema-instance" xsi:noNamespaceSchemaLocation="http://sumo.dlr.de/xsd/sumoConfiguration.xsd">

    <input>
        <net-file value="nets/60p2k/net.net.xml"/>
        <route-files value="nets/60p2k/route_60p2k.rou.xml"/>
    </input>

    <output>
        <summary-output value="result_baseline_50_1.9_0.4/summary_ep_9.xml"/>
        <tripinfo-output value="result_baseline_50_1.9_0.4/tripinfo_ep_9.xml"/>
        <vehroute-output value="result_baseline_50_1.9_0.4/vehroute_ep_9.xml"/>
    </output>

    <time>
        <begin value="0"/>
        <step-length value="1.0"/>
    </time>

    <processing>
        <scale value="1.9"/>
        <time-to-teleport value="600"/>
    </processing>

    <report>
        <verbose value="true"/>
    </report>

    <traci_server>
        <remote-port value="53447"/>
    </traci_server>

    <gui_only>
        <gui-settings-file value="nets/60p2k/gui-settings.xml"/>
    </gui_only>

</configuration>
-->

<routes xmlns:xsi="http://www.w3.org/2001/XMLSchema-instance" xsi:noNamespaceSchemaLocation="http://sumo.dlr.de/xsd/routes_file.xsd">
    <vehicle id="flow_3_phase1_N_right.0" type="car" depart="0.00" departLane="0" departPos="103.3842" departSpeed="3.7523" speedFactor="1.0907" arrival="24.00">
        <route edges="N_in W_out"/>
    </vehicle>

    <vehicle id="flow_8_phase1_S_uturn.0" type="moto" depart="0.00" departLane="0" departPos="120.1072" departSpeed="4.4837" speedFactor="1.0505" arrival="24.00">
        <route edges="S_in S_out"/>
    </vehicle>

    <vehicle id="flow_5_phase1_S_straight.0" type="moto" depart="0.00" departLane="1" departPos="107.3659" departSpeed="7.2113" speedFactor="1.1475" arrival="25.00">
        <route edges="S_in N_out"/>
    </vehicle>

    <vehicle id="flow_6_phase1_S_left.0" type="moto" depart="0.00" departLane="1" departPos="166.0107" departSpeed="0.7376" speedFactor="0.8806" arrival="25.00">
        <route edges="S_in W_out"/>
    </vehicle>

    <vehicle id="flow_4_phase1_N_uturn.0" type="car" depart="0.00" departLane="1" departPos="127.6015" departSpeed="0.0774" speedFactor="0.9228" arrival="32.00">
        <route edges="N_in N_out"/>
    </vehicle>

    <vehicle id="flow_2_phase1_N_left.0" type="moto" depart="0.00" departLane="1" departPos="8.2688" departSpeed="8.3291" speedFactor="1.0157" arrival="33.00">
        <route edges="N_in E_out"/>
    </vehicle>

    <vehicle id="flow_1_phase1_N_straight.0" type="bus" depart="0.00" departLane="0" departPos="8.6229" departSpeed="8.5053" speedFactor="0.8588" arrival="35.00">
        <route edges="N_in S_out"/>
    </vehicle>

    <vehicle id="flow_7_phase1_S_right.0" type="container" depart="0.00" departLane="0" departPos="8.759" departSpeed="8.0654" speedFactor="0.8488" arrival="39.00">
        <route edges="S_in E_out"/>
    </vehicle>

    <vehicle id="flow_5_phase1_S_straight.1" type="moto" depart="14.00" departLane="1" departPos="31.9285" departSpeed="9.2811" speedFactor="1.1853" arrival="39.00">
        <route edges="S_in N_out"/>
    </vehicle>

    <vehicle id="flow_1_phase1_N_straight.1" type="moto" depart="14.00" departLane="1" departPos="58.3562" departSpeed="11.6446" speedFactor="0.8727" arrival="44.00">
        <route edges="N_in S_out"/>
    </vehicle>

    <vehicle id="flow_1_phase1_N_straight.2" type="moto" depart="28.00" departLane="1" departPos="107.5311" departSpeed="1.1094" speedFactor="0.9279" arrival="55.00">
        <route edges="N_in S_out"/>
    </vehicle>

    <vehicle id="flow_3_phase1_N_right.1" type="moto" depart="35.00" departLane="0" departPos="166.0021" departSpeed="1.2818" speedFactor="0.8806" arrival="58.00">
        <route edges="N_in W_out"/>
    </vehicle>

    <vehicle id="flow_14_phase1_W_left.0" type="moto" depart="0.00" departLane="1" departPos="182.8773" departSpeed="5.6108" speedFactor="1.0101" arrival="60.00">
        <route edges="W_in N_out"/>
    </vehicle>

    <vehicle id="flow_15_phase1_W_right.0" type="moto" depart="0.00" departLane="0" departPos="108.377" departSpeed="2.6276" speedFactor="0.8472" arrival="63.00">
        <route edges="W_in S_out"/>
    </vehicle>

    <vehicle id="flow_5_phase1_S_straight.3" type="moto" depart="40.00" departLane="0" departPos="184.1938" departSpeed="8.583" speedFactor="1.0764" arrival="64.00">
        <route edges="S_in N_out"/>
    </vehicle>

    <vehicle id="flow_1_phase1_N_straight.3" type="moto" depart="41.00" departLane="0" departPos="65.0085" departSpeed="6.5773" speedFactor="1.2027" arrival="64.00">
        <route edges="N_in S_out"/>
    </vehicle>

    <vehicle id="flow_9_phase1_E_straight.0" type="truck" depart="0.00" departLane="0" departPos="168.2937" departSpeed="9.8263" speedFactor="0.8990" arrival="65.00">
        <route edges="E_in W_out"/>
    </vehicle>

    <vehicle id="flow_10_phase1_E_left.0" type="truck" depart="0.00" departLane="0" departPos="44.8816" departSpeed="7.6878" speedFactor="1.0161" arrival="65.00">
        <route edges="E_in S_out"/>
    </vehicle>

    <vehicle id="flow_5_phase1_S_straight.2" type="moto" depart="27.00" departLane="1" departPos="12.6982" departSpeed="12.4143" speedFactor="0.9623" arrival="66.00">
        <route edges="S_in N_out"/>
    </vehicle>

    <vehicle id="flow_2_phase1_N_left.1" type="moto" depart="33.00" departLane="0" departPos="8.8817" departSpeed="2.8196" speedFactor="1.1228" arrival="67.00">
        <route edges="N_in E_out"/>
    </vehicle>

    <vehicle id="flow_6_phase1_S_left.1" type="moto" depart="34.00" departLane="1" departPos="79.0964" departSpeed="8.5001" speedFactor="1.0453" arrival="70.00">
        <route edges="S_in W_out"/>
    </vehicle>

    <vehicle id="flow_7_phase1_S_right.1" type="container" depart="33.00" departLane="1" departPos="66.71" departSpeed="7.8717" speedFactor="0.7845" arrival="73.00">
        <route edges="S_in E_out"/>
    </vehicle>

    <vehicle id="flow_5_phase1_S_straight.4" type="container" depart="53.00" departLane="0" departPos="135.2371" departSpeed="1.6769" speedFactor="0.9706" arrival="82.00">
        <route edges="S_in N_out"/>
    </vehicle>

    <vehicle id="flow_7_phase1_S_right.2" type="moto" depart="65.00" departLane="1" departPos="160.3044" departSpeed="13.982" speedFactor="1.0283" arrival="85.00">
        <route edges="S_in E_out"/>
    </vehicle>

    <vehicle id="flow_1_phase1_N_straight.4" type="truck" depart="55.00" departLane="1" departPos="74.0695" departSpeed="0.5443" speedFactor="0.9194" arrival="87.00">
        <route edges="N_in S_out"/>
    </vehicle>

    <vehicle id="flow_2_phase1_N_left.2" type="emergency" depart="66.00" departLane="1" departPos="129.0888" departSpeed="5.7961" speedFactor="1.0989" arrival="87.00">
        <route edges="N_in E_out"/>
    </vehicle>

    <vehicle id="flow_5_phase1_S_straight.5" type="moto" depart="67.00" departLane="0" departPos="64.2471" departSpeed="6.7102" speedFactor="1.0265" arrival="93.00">
        <route edges="S_in N_out"/>
    </vehicle>

    <vehicle id="flow_1_phase1_N_straight.5" type="moto" depart="68.00" departLane="1" departPos="84.6621" departSpeed="1.9226" speedFactor="0.9020" arrival="97.00">
        <route edges="N_in S_out"/>
    </vehicle>

    <vehicle id="flow_3_phase1_N_right.2" type="moto" depart="69.00" departLane="1" departPos="69.4902" departSpeed="4.229" speedFactor="1.1043" arrival="97.00">
        <route edges="N_in W_out"/>
    </vehicle>

    <vehicle id="flow_4_phase1_N_uturn.1" type="moto" depart="67.00" departLane="1" departPos="65.5698" departSpeed="2.1826" speedFactor="0.9374" arrival="100.00">
        <route edges="N_in N_out"/>
    </vehicle>

    <vehicle id="flow_1_phase1_N_straight.6" type="car" depart="82.00" departLane="1" departPos="150.3544" departSpeed="7.743" speedFactor="0.9797" arrival="102.00">
        <route edges="N_in S_out"/>
    </vehicle>

    <vehicle id="flow_6_phase1_S_left.2" type="truck" depart="67.00" departLane="1" departPos="174.172" departSpeed="8.1423" speedFactor="0.8923" arrival="103.00">
        <route edges="S_in W_out"/>
    </vehicle>

    <vehicle id="flow_16_phase1_W_uturn.0" type="moto" depart="0.00" departLane="0" departPos="126.6766" departSpeed="11.7148" speedFactor="1.0383" arrival="105.00">
        <route edges="W_in W_out"/>
    </vehicle>

    <vehicle id="flow_12_phase1_E_uturn.0" type="moto" depart="0.00" departLane="0" departPos="5.6544" departSpeed="13.7593" speedFactor="1.0348" arrival="106.00">
        <route edges="E_in E_out"/>
    </vehicle>

    <vehicle id="flow_11_phase1_E_right.0" type="bus" depart="0.00" departLane="1" departPos="144.9496" departSpeed="4.0187" speedFactor="0.9581" arrival="109.00">
        <route edges="E_in N_out"/>
    </vehicle>

    <vehicle id="flow_8_phase1_S_uturn.1" type="truck" depart="66.00" departLane="1" departPos="19.5053" departSpeed="7.488" speedFactor="0.9396" arrival="110.00">
        <route edges="S_in S_out"/>
    </vehicle>

    <vehicle id="flow_13_phase1_W_straight.0" type="container" depart="0.00" departLane="0" departPos="24.5296" departSpeed="3.7887" speedFactor="0.8227" arrival="114.00">
        <route edges="W_in E_out"/>
    </vehicle>

    <vehicle id="flow_5_phase1_S_straight.6" type="moto" depart="80.00" departLane="1" departPos="88.3207" departSpeed="12.9881" speedFactor="1.0983" arrival="115.00">
        <route edges="S_in N_out"/>
    </vehicle>

    <vehicle id="flow_5_phase1_S_straight.7" type="bus" depart="93.00" departLane="0" departPos="140.508" departSpeed="9.4188" speedFactor="0.9040" arrival="115.00">
        <route edges="S_in N_out"/>
    </vehicle>

    <vehicle id="flow_7_phase1_S_right.3" type="moto" depart="98.00" departLane="1" departPos="140.1205" departSpeed="11.7721" speedFactor="1.0682" arrival="119.00">
        <route edges="S_in E_out"/>
    </vehicle>

    <vehicle id="flow_1_phase1_N_straight.7" type="moto" depart="95.00" departLane="1" departPos="16.1283" departSpeed="8.6916" speedFactor="1.0626" arrival="124.00">
        <route edges="N_in S_out"/>
    </vehicle>

    <vehicle id="flow_3_phase1_N_right.3" type="moto" depart="103.00" departLane="0" departPos="157.0309" departSpeed="10.174" speedFactor="0.9618" arrival="124.00">
        <route edges="N_in W_out"/>
    </vehicle>

    <vehicle id="flow_2_phase1_N_left.3" type="moto" depart="99.00" departLane="1" departPos="109.812" departSpeed="6.5197" speedFactor="0.8878" arrival="127.00">
        <route edges="N_in E_out"/>
    </vehicle>

    <vehicle id="flow_1_phase1_N_straight.8" type="moto" depart="109.00" departLane="1" departPos="150.7313" departSpeed="0.5349" speedFactor="0.9730" arrival="131.00">
        <route edges="N_in S_out"/>
    </vehicle>

    <vehicle id="flow_6_phase1_S_left.3" type="car" depart="101.00" departLane="0" departPos="35.6434" departSpeed="3.5229" speedFactor="1.0972" arrival="133.00">
        <route edges="S_in W_out"/>
    </vehicle>

    <vehicle id="flow_5_phase1_S_straight.8" type="emergency" depart="106.00" departLane="1" departPos="5.9732" departSpeed="0.4988" speedFactor="1.1380" arrival="135.00">
        <route edges="S_in N_out"/>
    </vehicle>

    <vehicle id="flow_5_phase1_S_straight.9" type="moto" depart="120.00" departLane="0" departPos="151.0147" departSpeed="11.2671" speedFactor="1.2976" arrival="137.00">
        <route edges="S_in N_out"/>
    </vehicle>

    <vehicle id="flow_9_phase1_E_straight.1" type="moto" depart="13.00" departLane="0" departPos="131.129" departSpeed="9.5396" speedFactor="1.1582" arrival="149.00">
        <route edges="E_in W_out"/>
    </vehicle>

    <vehicle id="flow_13_phase1_W_straight.1" type="car" depart="14.00" departLane="1" departPos="121.6549" departSpeed="2.8591" speedFactor="1.1218" arrival="149.00">
        <route edges="W_in E_out"/>
    </vehicle>

    <vehicle id="flow_11_phase1_E_right.1" type="moto" depart="33.00" departLane="1" departPos="80.2425" departSpeed="3.0596" speedFactor="1.0365" arrival="149.00">
        <route edges="E_in N_out"/>
    </vehicle>

    <vehicle id="flow_15_phase1_W_right.1" type="moto" depart="33.00" departLane="1" departPos="97.231" departSpeed="5.8444" speedFactor="1.0788" arrival="149.00">
        <route edges="W_in S_out"/>
    </vehicle>

    <vehicle id="flow_5_phase1_S_straight.10" type="moto" depart="133.00" departLane="1" departPos="170.8427" departSpeed="4.331" speedFactor="1.0281" arrival="151.00">
        <route edges="S_in N_out"/>
    </vehicle>

    <vehicle id="flow_7_phase1_S_right.4" type="moto" depart="130.00" departLane="0" departPos="169.4272" departSpeed="13.3339" speedFactor="0.9645" arrival="153.00">
        <route edges="S_in E_out"/>
    </vehicle>

    <vehicle id="flow_1_phase1_N_straight.9" type="truck" depart="122.00" departLane="0" departPos="29.1188" departSpeed="3.9445" speedFactor="0.9670" arrival="154.00">
        <route edges="N_in S_out"/>
    </vehicle>

    <vehicle id="flow_2_phase1_N_left.4" type="moto" depart="131.00" departLane="1" departPos="146.8151" departSpeed="14.7032" speedFactor="1.1571" arrival="154.00">
        <route edges="N_in E_out"/>
    </vehicle>

    <vehicle id="flow_3_phase1_N_right.4" type="moto" depart="137.00" departLane="1" departPos="162.1669" departSpeed="13.608" speedFactor="1.0387" arrival="157.00">
        <route edges="N_in W_out"/>
    </vehicle>

    <vehicle id="flow_6_phase1_S_left.4" type="moto" depart="134.00" departLane="0" departPos="172.0661" departSpeed="8.8061" speedFactor="1.0387" arrival="158.00">
        <route edges="S_in W_out"/>
    </vehicle>

    <vehicle id="flow_4_phase1_N_uturn.2" type="car" depart="133.00" departLane="1" departPos="95.9942" departSpeed="3.4522" speedFactor="1.0323" arrival="161.00">
        <route edges="N_in N_out"/>
    </vehicle>

    <vehicle id="flow_1_phase1_N_straight.10" type="bus" depart="136.00" departLane="1" departPos="66.1547" departSpeed="12.2329" speedFactor="1.0325" arrival="163.00">
        <route edges="N_in S_out"/>
    </vehicle>

    <vehicle id="flow_5_phase1_S_straight.11" type="bus" depart="146.00" departLane="0" departPos="169.1917" departSpeed="9.5828" speedFactor="0.9784" arrival="165.00">
        <route edges="S_in N_out"/>
    </vehicle>

    <vehicle id="flow_8_phase1_S_uturn.2" type="moto" depart="132.00" departLane="0" departPos="5.0473" departSpeed="10.9801" speedFactor="0.9897" arrival="169.00">
        <route edges="S_in S_out"/>
    </vehicle>

    <vehicle id="flow_1_phase1_N_straight.11" type="truck" depart="149.00" departLane="0" departPos="72.1694" departSpeed="8.6237" speedFactor="0.9137" arrival="176.00">
        <route edges="N_in S_out"/>
    </vehicle>

    <vehicle id="flow_5_phase1_S_straight.12" type="moto" depart="159.00" departLane="0" departPos="15.88" departSpeed="1.6729" speedFactor="1.0699" arrival="189.00">
        <route edges="S_in N_out"/>
    </vehicle>

    <vehicle id="flow_13_phase1_W_straight.3" type="car" depart="41.00" departLane="1" departPos="88.4153" departSpeed="1.4788" speedFactor="1.0479" arrival="194.00">
        <route edges="W_in E_out"/>
    </vehicle>

    <vehicle id="flow_6_phase1_S_left.5" type="bus" depart="168.00" departLane="0" departPos="165.1863" departSpeed="0.0703" speedFactor="0.9819" arrival="194.00">
        <route edges="S_in W_out"/>
    </vehicle>

    <vehicle id="flow_9_phase1_E_straight.2" type="moto" depart="26.00" departLane="1" departPos="52.8684" departSpeed="0.3845" speedFactor="0.9938" arrival="196.00">
        <route edges="E_in W_out"/>
    </vehicle>

    <vehicle id="flow_13_phase1_W_straight.2" type="bus" depart="27.00" departLane="1" departPos="59.5081" departSpeed="13.3195" speedFactor="0.9657" arrival="201.00">
        <route edges="W_in E_out"/>
    </vehicle>

    <vehicle id="flow_9_phase1_E_straight.4" type="bus" depart="52.00" departLane="1" departPos="53.3168" departSpeed="10.3403" speedFactor="0.9525" arrival="201.00">
        <route edges="E_in W_out"/>
    </vehicle>

    <vehicle id="flow_7_phase1_S_right.5" type="truck" depart="163.00" departLane="0" departPos="22.6696" departSpeed="7.7669" speedFactor="1.0532" arrival="201.00">
        <route edges="S_in E_out"/>
    </vehicle>

    <vehicle id="flow_5_phase1_S_straight.13" type="moto" depart="172.00" departLane="0" departPos="100.2317" departSpeed="0.8392" speedFactor="1.2148" arrival="201.00">
        <route edges="S_in N_out"/>
    </vehicle>

    <vehicle id="flow_2_phase1_N_left.5" type="car" depart="164.00" departLane="1" departPos="43.1771" departSpeed="2.9226" speedFactor="0.8868" arrival="208.00">
        <route edges="N_in E_out"/>
    </vehicle>

    <vehicle id="flow_1_phase1_N_straight.13" type="truck" depart="176.00" departLane="0" departPos="15.6422" departSpeed="7.3083" speedFactor="0.9465" arrival="208.00">
        <route edges="N_in S_out"/>
    </vehicle>

    <vehicle id="flow_1_phase1_N_straight.12" type="truck" depart="163.00" departLane="0" departPos="11.4261" departSpeed="13.0252" speedFactor="0.9615" arrival="209.00">
        <route edges="N_in S_out"/>
    </vehicle>

    <vehicle id="flow_3_phase1_N_right.5" type="moto" depart="171.00" departLane="0" departPos="7.5649" departSpeed="10.2244" speedFactor="0.9059" arrival="210.00">
        <route edges="N_in W_out"/>
    </vehicle>

    <vehicle id="flow_7_phase1_S_right.6" type="car" depart="195.00" departLane="1" departPos="175.2569" departSpeed="5.2303" speedFactor="1.1275" arrival="213.00">
        <route edges="S_in E_out"/>
    </vehicle>

    <vehicle id="flow_1_phase1_N_straight.14" type="car" depart="190.00" departLane="1" departPos="36.0857" departSpeed="3.8408" speedFactor="0.9718" arrival="223.00">
        <route edges="N_in S_out"/>
    </vehicle>

    <vehicle id="flow_5_phase1_S_straight.14" type="car" depart="186.00" departLane="1" departPos="12.5958" departSpeed="1.9481" speedFactor="0.8047" arrival="225.00">
        <route edges="S_in N_out"/>
    </vehicle>

    <vehicle id="flow_5_phase1_S_straight.15" type="container" depart="199.00" departLane="0" departPos="96.5573" departSpeed="4.5345" speedFactor="0.9628" arrival="228.00">
        <route edges="S_in N_out"/>
    </vehicle>

    <vehicle id="flow_3_phase1_N_right.6" type="truck" depart="206.00" departLane="0" departPos="166.1364" departSpeed="10.2921" speedFactor="0.9035" arrival="228.00">
        <route edges="N_in W_out"/>
    </vehicle>

    <vehicle id="flow_1_phase1_N_straight.15" type="car" depart="203.00" departLane="1" departPos="119.7704" departSpeed="9.1799" speedFactor="0.9311" arrival="232.00">
        <route edges="N_in S_out"/>
    </vehicle>

    <vehicle id="flow_5_phase1_S_straight.16" type="moto" depart="212.00" departLane="1" departPos="156.7938" departSpeed="2.5012" speedFactor="1.2172" arrival="234.00">
        <route edges="S_in N_out"/>
    </vehicle>

    <vehicle id="flow_2_phase1_N_left.6" type="moto" depart="197.00" departLane="1" departPos="147.9348" departSpeed="3.3969" speedFactor="0.8416" arrival="236.00">
        <route edges="N_in E_out"/>
    </vehicle>

    <vehicle id="flow_11_phase1_E_right.2" type="moto" depart="65.00" departLane="1" departPos="111.6918" departSpeed="6.8465" speedFactor="1.1432" arrival="238.00">
        <route edges="E_in N_out"/>
    </vehicle>

    <vehicle id="flow_6_phase1_S_left.6" type="bus" depart="201.00" departLane="1" departPos="159.745" departSpeed="6.4152" speedFactor="1.0167" arrival="239.00">
        <route edges="S_in W_out"/>
    </vehicle>

    <vehicle id="flow_4_phase1_N_uturn.3" type="bus" depart="199.00" departLane="0" departPos="163.9951" departSpeed="5.3764" speedFactor="0.9700" arrival="241.00">
        <route edges="N_in N_out"/>
    </vehicle>

    <vehicle id="flow_9_phase1_E_straight.3" type="bus" depart="39.00" departLane="0" departPos="86.4153" departSpeed="8.4123" speedFactor="0.8515" arrival="246.00">
        <route edges="E_in W_out"/>
    </vehicle>

    <vehicle id="flow_1_phase1_N_straight.16" type="moto" depart="217.00" departLane="1" departPos="123.0606" departSpeed="5.9883" speedFactor="1.0821" arrival="246.00">
        <route edges="N_in S_out"/>
    </vehicle>

    <vehicle id="flow_13_phase1_W_straight.4" type="bus" depart="54.00" departLane="0" departPos="70.4575" departSpeed="10.655" speedFactor="0.8691" arrival="247.00">
        <route edges="W_in E_out"/>
    </vehicle>

    <vehicle id="flow_7_phase1_S_right.7" type="moto" depart="228.00" departLane="1" departPos="141.6365" departSpeed="6.3577" speedFactor="0.9986" arrival="250.00">
        <route edges="S_in E_out"/>
    </vehicle>

    <vehicle id="flow_5_phase1_S_straight.17" type="moto" depart="225.00" departLane="1" departPos="135.7938" departSpeed="1.6265" speedFactor="0.8818" arrival="254.00">
        <route edges="S_in N_out"/>
    </vehicle>

    <vehicle id="flow_14_phase1_W_left.1" type="container" depart="35.00" departLane="0" departPos="93.4122" departSpeed="9.5091" speedFactor="0.9146" arrival="258.00">
        <route edges="W_in N_out"/>
    </vehicle>

    <vehicle id="flow_2_phase1_N_left.7" type="car" depart="229.00" departLane="1" departPos="2.3297" departSpeed="8.3895" speedFactor="1.0423" arrival="261.00">
        <route edges="N_in E_out"/>
    </vehicle>

    <vehicle id="flow_8_phase1_S_uturn.3" type="car" depart="198.00" departLane="0" departPos="44.1716" departSpeed="12.2644" speedFactor="0.8963" arrival="262.00">
        <route edges="S_in S_out"/>
    </vehicle>

    <vehicle id="flow_5_phase1_S_straight.18" type="car" depart="239.00" departLane="0" departPos="92.0756" departSpeed="3.3645" speedFactor="1.1422" arrival="262.00">
        <route edges="S_in N_out"/>
    </vehicle>

    <vehicle id="flow_1_phase1_N_straight.17" type="moto" depart="230.00" departLane="1" departPos="145.5875" departSpeed="4.9637" speedFactor="0.7932" arrival="263.00">
        <route edges="N_in S_out"/>
    </vehicle>

    <vehicle id="flow_3_phase1_N_right.7" type="moto" depart="240.00" departLane="1" departPos="99.8631" departSpeed="3.1423" speedFactor="0.9544" arrival="267.00">
        <route edges="N_in W_out"/>
    </vehicle>

    <vehicle id="flow_1_phase1_N_straight.18" type="moto" depart="244.00" departLane="1" departPos="63.5214" departSpeed="9.269" speedFactor="1.2029" arrival="267.00">
        <route edges="N_in S_out"/>
    </vehicle>

    <vehicle id="flow_5_phase1_S_straight.19" type="moto" depart="252.00" departLane="1" departPos="176.9299" departSpeed="4.072" speedFactor="0.9560" arrival="276.00">
        <route edges="S_in N_out"/>
    </vehicle>

    <vehicle id="flow_6_phase1_S_left.7" type="truck" depart="235.00" departLane="1" departPos="19.0804" departSpeed="9.3956" speedFactor="0.9351" arrival="277.00">
        <route edges="S_in W_out"/>
    </vehicle>

    <vehicle id="flow_13_phase1_W_straight.5" type="moto" depart="67.00" departLane="1" departPos="74.602" departSpeed="13.505" speedFactor="1.1413" arrival="284.00">
        <route edges="W_in E_out"/>
    </vehicle>

    <vehicle id="flow_9_phase1_E_straight.5" type="moto" depart="65.00" departLane="1" departPos="65.3279" departSpeed="12.5263" speedFactor="0.9964" arrival="285.00">
        <route edges="E_in W_out"/>
    </vehicle>

    <vehicle id="flow_7_phase1_S_right.8" type="bus" depart="260.00" departLane="1" departPos="141.1035" departSpeed="6.9295" speedFactor="0.9499" arrival="285.00">
        <route edges="S_in E_out"/>
    </vehicle>

    <vehicle id="flow_15_phase1_W_right.2" type="moto" depart="66.00" departLane="1" departPos="91.5182" departSpeed="12.1109" speedFactor="0.8882" arrival="286.00">
        <route edges="W_in S_out"/>
    </vehicle>

    <vehicle id="flow_1_phase1_N_straight.19" type="bus" depart="257.00" departLane="1" departPos="72.0571" departSpeed="6.4199" speedFactor="0.9610" arrival="292.00">
        <route edges="N_in S_out"/>
    </vehicle>

    <vehicle id="flow_10_phase1_E_left.1" type="truck" depart="34.00" departLane="0" departPos="4.5211" departSpeed="10.4074" speedFactor="0.7665" arrival="294.00">
        <route edges="E_in S_out"/>
    </vehicle>

    <vehicle id="flow_3_phase1_N_right.8" type="moto" depart="274.00" departLane="1" departPos="114.5008" departSpeed="14.1555" speedFactor="1.1544" arrival="295.00">
        <route edges="N_in W_out"/>
    </vehicle>

    <vehicle id="flow_8_phase1_S_uturn.4" type="car" depart="264.00" departLane="0" departPos="132.8249" departSpeed="13.81" speedFactor="1.0920" arrival="296.00">
        <route edges="S_in S_out"/>
    </vehicle>

    <vehicle id="flow_5_phase1_S_straight.20" type="container" depart="265.00" departLane="0" departPos="163.3992" departSpeed="0.3239" speedFactor="0.9284" arrival="296.00">
        <route edges="S_in N_out"/>
    </vehicle>

    <vehicle id="flow_1_phase1_N_straight.20" type="moto" depart="271.00" departLane="0" departPos="149.7974" departSpeed="9.4928" speedFactor="0.8684" arrival="296.00">
        <route edges="N_in S_out"/>
    </vehicle>

    <vehicle id="flow_2_phase1_N_left.8" type="moto" depart="262.00" departLane="1" departPos="150.8964" departSpeed="5.2895" speedFactor="0.9070" arrival="304.00">
        <route edges="N_in E_out"/>
    </vehicle>

    <vehicle id="flow_5_phase1_S_straight.21" type="moto" depart="278.00" departLane="0" departPos="165.7393" departSpeed="9.7074" speedFactor="0.7134" arrival="304.00">
        <route edges="S_in N_out"/>
    </vehicle>

    <vehicle id="flow_1_phase1_N_straight.21" type="car" depart="284.00" departLane="1" departPos="138.2834" departSpeed="10.7857" speedFactor="0.9518" arrival="306.00">
        <route edges="N_in S_out"/>
    </vehicle>

    <vehicle id="flow_4_phase1_N_uturn.4" type="truck" depart="265.00" departLane="0" departPos="94.6063" departSpeed="10.926" speedFactor="0.8303" arrival="307.00">
        <route edges="N_in N_out"/>
    </vehicle>

    <vehicle id="flow_6_phase1_S_left.8" type="truck" depart="268.00" departLane="1" departPos="18.9064" departSpeed="3.2202" speedFactor="1.0716" arrival="313.00">
        <route edges="S_in W_out"/>
    </vehicle>

    <vehicle id="flow_1_phase1_N_straight.22" type="moto" depart="298.00" departLane="1" departPos="177.3398" departSpeed="13.8226" speedFactor="1.1582" arrival="313.00">
        <route edges="N_in S_out"/>
    </vehicle>

    <vehicle id="flow_5_phase1_S_straight.22" type="moto" depart="292.00" departLane="0" departPos="31.2819" departSpeed="5.3998" speedFactor="1.0511" arrival="320.00">
        <route edges="S_in N_out"/>
    </vehicle>

    <vehicle id="flow_7_phase1_S_right.9" type="car" depart="293.00" departLane="1" departPos="68.7762" departSpeed="7.2512" speedFactor="0.9875" arrival="321.00">
        <route edges="S_in E_out"/>
    </vehicle>

    <vehicle id="flow_6_phase1_S_left.9" type="car" depart="302.00" departLane="1" departPos="129.7376" departSpeed="11.8603" speedFactor="0.9967" arrival="325.00">
        <route edges="S_in W_out"/>
    </vehicle>

    <vehicle id="flow_2_phase1_N_left.9" type="moto" depart="295.00" departLane="0" departPos="112.5955" departSpeed="10.722" speedFactor="0.9567" arrival="326.00">
        <route edges="N_in E_out"/>
    </vehicle>

    <vehicle id="flow_9_phase1_E_straight.6" type="moto" depart="78.00" departLane="1" departPos="60.8307" departSpeed="2.7704" speedFactor="1.0203" arrival="330.00">
        <route edges="E_in W_out"/>
    </vehicle>

    <vehicle id="flow_12_phase1_E_uturn.1" type="moto" depart="66.00" departLane="0" departPos="104.1356" departSpeed="8.4812" speedFactor="0.9517" arrival="331.00">
        <route edges="E_in E_out"/>
    </vehicle>

    <vehicle id="flow_16_phase1_W_uturn.1" type="moto" depart="67.00" departLane="1" departPos="63.1043" departSpeed="7.0397" speedFactor="1.0390" arrival="331.00">
        <route edges="W_in W_out"/>
    </vehicle>

    <vehicle id="flow_13_phase1_W_straight.6" type="car" depart="81.00" departLane="0" departPos="41.8299" departSpeed="3.2341" speedFactor="0.9759" arrival="331.00">
        <route edges="W_in E_out"/>
    </vehicle>

    <vehicle id="flow_5_phase1_S_straight.23" type="car" depart="305.00" departLane="0" departPos="33.3823" departSpeed="8.2398" speedFactor="0.9541" arrival="335.00">
        <route edges="S_in N_out"/>
    </vehicle>

    <vehicle id="flow_1_phase1_N_straight.23" type="bus" depart="311.00" departLane="1" departPos="179.8272" departSpeed="6.2573" speedFactor="0.8916" arrival="338.00">
        <route edges="N_in S_out"/>
    </vehicle>

    <vehicle id="flow_3_phase1_N_right.9" type="truck" depart="308.00" departLane="1" departPos="46.2271" departSpeed="6.2383" speedFactor="0.9344" arrival="341.00">
        <route edges="N_in W_out"/>
    </vehicle>

    <vehicle id="flow_5_phase1_S_straight.24" type="bus" depart="318.00" departLane="1" departPos="74.4083" departSpeed="7.173" speedFactor="0.9204" arrival="346.00">
        <route edges="S_in N_out"/>
    </vehicle>

    <vehicle id="flow_8_phase1_S_uturn.5" type="moto" depart="330.00" departLane="1" departPos="183.4182" departSpeed="5.3404" speedFactor="1.1919" arrival="348.00">
        <route edges="S_in S_out"/>
    </vehicle>

    <vehicle id="flow_1_phase1_N_straight.24" type="moto" depart="325.00" departLane="0" departPos="85.0244" departSpeed="9.8078" speedFactor="0.8454" arrival="354.00">
        <route edges="N_in S_out"/>
    </vehicle>

    <vehicle id="flow_7_phase1_S_right.10" type="car" depart="325.00" departLane="1" departPos="89.4417" departSpeed="1.0989" speedFactor="0.9455" arrival="354.00">
        <route edges="S_in E_out"/>
    </vehicle>

    <vehicle id="flow_2_phase1_N_left.10" type="moto" depart="327.00" departLane="0" departPos="34.422" departSpeed="11.4278" speedFactor="1.0614" arrival="355.00">
        <route edges="N_in E_out"/>
    </vehicle>
