<?xml version="1.0" encoding="UTF-8"?>

<!-- generated on 2025-12-09 21:28:30 by Eclipse SUMO sumo Version 1.18.0
<configuration xmlns:xsi="http://www.w3.org/2001/XMLSchema-instance" xsi:noNamespaceSchemaLocation="http://sumo.dlr.de/xsd/sumoConfiguration.xsd">

    <input>
        <net-file value="nets/120p4k/net.net.xml"/>
        <route-files value="nets/120p4k/route_temp_288_128717304264496_34832144.rou.xml"/>
    </input>

    <output>
        <summary-output value="result_ddqn_0.9_0.3/summary_ep_5.xml"/>
        <tripinfo-output value="result_ddqn_0.9_0.3/tripinfo_ep_5.xml"/>
        <vehroute-output value="result_ddqn_0.9_0.3/vehroute_ep_5.xml"/>
    </output>

    <time>
        <begin value="0"/>
    </time>

    <report>
        <verbose value="true"/>
        <no-warnings value="true"/>
        <no-step-log value="true"/>
    </report>

    <traci_server>
        <remote-port value="33625"/>
    </traci_server>

    <gui_only>
        <gui-settings-file value="nets/120p4k/gui-settings.xml"/>
        <quit-on-end value="true"/>
    </gui_only>

</configuration>
-->

<tripinfos xmlns:xsi="http://www.w3.org/2001/XMLSchema-instance" xsi:noNamespaceSchemaLocation="http://sumo.dlr.de/xsd/tripinfo_file.xsd">
    <tripinfo id="flow_3_increasing_0_N_right.0" depart="0.00" departLane="N_in_0" departPos="103.38" departSpeed="3.81" departDelay="0.00" arrival="23.00" arrivalLane="S_out_0" arrivalPos="189.60" arrivalSpeed="14.74" duration="23.00" routeLength="296.62" waitingTime="0.00" waitingCount="0" stopTime="0.00" timeLoss="3.12" rerouteNo="0" devices="vehroute_flow_3_increasing_0_N_right.0 tripinfo_flow_3_increasing_0_N_right.0" vType="moto" speedFactor="1.11" vaporized=""/>
    <tripinfo id="flow_8_increasing_0_S_uturn.0" depart="0.00" departLane="S_in_0" departPos="120.11" departSpeed="4.48" departDelay="0.00" arrival="26.00" arrivalLane="S_out_1" arrivalPos="189.60" arrivalSpeed="13.35" duration="26.00" routeLength="263.76" waitingTime="0.00" waitingCount="0" stopTime="0.00" timeLoss="6.18" rerouteNo="0" devices="vehroute_flow_8_increasing_0_S_uturn.0 tripinfo_flow_8_increasing_0_S_uturn.0" vType="moto" speedFactor="1.05" vaporized=""/>
    <tripinfo id="flow_6_increasing_0_S_left.0" depart="0.00" departLane="S_in_1" departPos="166.01" departSpeed="0.74" departDelay="0.00" arrival="30.00" arrivalLane="W_out_1" arrivalPos="189.60" arrivalSpeed="11.44" duration="30.00" routeLength="232.54" waitingTime="2.00" waitingCount="1" stopTime="0.00" timeLoss="9.43" rerouteNo="0" devices="vehroute_flow_6_increasing_0_S_left.0 tripinfo_flow_6_increasing_0_S_left.0" vType="moto" speedFactor="0.88" vaporized=""/>
    <tripinfo id="flow_12_increasing_0_E_uturn.0" depart="0.00" departLane="S_in_0" departPos="5.65" departSpeed="13.76" departDelay="0.00" arrival="31.00" arrivalLane="W_out_1" arrivalPos="189.60" arrivalSpeed="13.45" duration="31.00" routeLength="392.90" waitingTime="0.00" waitingCount="0" stopTime="0.00" timeLoss="2.60" rerouteNo="0" devices="vehroute_flow_12_increasing_0_E_uturn.0 tripinfo_flow_12_increasing_0_E_uturn.0" vType="moto" speedFactor="1.03" vaporized=""/>
    <tripinfo id="flow_14_increasing_0_W_left.0" depart="0.00" departLane="N_in_1" departPos="42.31" departSpeed="3.71" departDelay="0.00" arrival="31.00" arrivalLane="N_out_1" arrivalPos="189.60" arrivalSpeed="13.33" duration="31.00" routeLength="341.56" waitingTime="0.00" waitingCount="0" stopTime="0.00" timeLoss="5.65" rerouteNo="0" devices="vehroute_flow_14_increasing_0_W_left.0 tripinfo_flow_14_increasing_0_W_left.0" vType="moto" speedFactor="1.01" vaporized=""/>
    <tripinfo id="flow_13_increasing_0_W_straight.0" depart="0.00" departLane="S_in_0" departPos="77.99" departSpeed="3.97" departDelay="0.00" arrival="34.00" arrivalLane="E_out_0" arrivalPos="189.60" arrivalSpeed="11.62" duration="34.00" routeLength="310.24" waitingTime="0.00" waitingCount="0" stopTime="0.00" timeLoss="6.18" rerouteNo="0" devices="vehroute_flow_13_increasing_0_W_straight.0 tripinfo_flow_13_increasing_0_W_straight.0" vType="bus" speedFactor="0.86" vaporized=""/>
    <tripinfo id="flow_16_increasing_0_W_uturn.0" depart="0.00" departLane="E_in_1" departPos="135.67" departSpeed="1.28" departDelay="0.00" arrival="36.00" arrivalLane="W_out_1" arrivalPos="189.60" arrivalSpeed="13.93" duration="36.00" routeLength="264.33" waitingTime="7.00" waitingCount="1" stopTime="0.00" timeLoss="17.51" rerouteNo="0" devices="vehroute_flow_16_increasing_0_W_uturn.0 tripinfo_flow_16_increasing_0_W_uturn.0" vType="moto" speedFactor="1.04" vaporized=""/>
    <tripinfo id="flow_9_increasing_0_E_straight.0" depart="0.00" departLane="E_in_0" departPos="168.29" departSpeed="10.73" departDelay="0.00" arrival="37.00" arrivalLane="W_out_0" arrivalPos="189.60" arrivalSpeed="11.84" duration="37.00" routeLength="231.71" waitingTime="13.00" waitingCount="1" stopTime="0.00" timeLoss="18.71" rerouteNo="0" devices="vehroute_flow_9_increasing_0_E_straight.0 tripinfo_flow_9_increasing_0_E_straight.0" vType="car" speedFactor="0.94" vaporized=""/>
    <tripinfo id="flow_5_increasing_0_S_straight.0" depart="0.00" departLane="E_in_1" departPos="107.37" departSpeed="7.21" departDelay="0.00" arrival="38.00" arrivalLane="E_out_1" arrivalPos="189.60" arrivalSpeed="15.10" duration="38.00" routeLength="276.50" waitingTime="7.00" waitingCount="1" stopTime="0.00" timeLoss="19.24" rerouteNo="0" devices="vehroute_flow_5_increasing_0_S_straight.0 tripinfo_flow_5_increasing_0_S_straight.0" vType="moto" speedFactor="1.15" vaporized=""/>
    <tripinfo id="flow_11_increasing_0_E_right.0" depart="0.00" departLane="W_in_1" departPos="144.95" departSpeed="4.02" departDelay="0.00" arrival="39.00" arrivalLane="S_out_0" arrivalPos="189.60" arrivalSpeed="13.11" duration="39.00" routeLength="243.28" waitingTime="8.00" waitingCount="1" stopTime="0.00" timeLoss="19.92" rerouteNo="0" devices="vehroute_flow_11_increasing_0_E_right.0 tripinfo_flow_11_increasing_0_E_right.0" vType="bus" speedFactor="0.96" vaporized=""/>
    <tripinfo id="flow_4_increasing_0_N_uturn.0" depart="0.00" departLane="E_in_1" departPos="127.60" departSpeed="0.08" departDelay="0.00" arrival="40.00" arrivalLane="W_out_1" arrivalPos="189.60" arrivalSpeed="12.20" duration="40.00" routeLength="272.40" waitingTime="7.00" waitingCount="1" stopTime="0.00" timeLoss="17.52" rerouteNo="0" devices="vehroute_flow_4_increasing_0_N_uturn.0 tripinfo_flow_4_increasing_0_N_uturn.0" vType="moto" speedFactor="0.91" vaporized=""/>
    <tripinfo id="flow_10_increasing_0_E_left.0" depart="0.00" departLane="E_in_0" departPos="44.88" departSpeed="8.19" departDelay="0.00" arrival="40.00" arrivalLane="S_out_1" arrivalPos="189.60" arrivalSpeed="14.41" duration="40.00" routeLength="353.67" waitingTime="5.00" waitingCount="1" stopTime="0.00" timeLoss="15.52" rerouteNo="0" devices="vehroute_flow_10_increasing_0_E_left.0 tripinfo_flow_10_increasing_0_E_left.0" vType="car" speedFactor="1.08" vaporized=""/>
    <tripinfo id="flow_15_increasing_0_W_right.0" depart="0.00" departLane="W_in_1" departPos="45.77" departSpeed="6.73" departDelay="0.00" arrival="44.00" arrivalLane="S_out_0" arrivalPos="189.60" arrivalSpeed="10.59" duration="44.00" routeLength="342.46" waitingTime="3.00" waitingCount="1" stopTime="0.00" timeLoss="13.38" rerouteNo="0" devices="vehroute_flow_15_increasing_0_W_right.0 tripinfo_flow_15_increasing_0_W_right.0" vType="moto" speedFactor="0.85" vaporized=""/>
    <tripinfo id="flow_7_increasing_0_S_right.0" depart="0.00" departLane="W_in_0" departPos="8.76" departSpeed="8.47" departDelay="0.00" arrival="47.00" arrivalLane="S_out_0" arrivalPos="189.60" arrivalSpeed="11.74" duration="47.00" routeLength="379.47" waitingTime="2.00" waitingCount="1" stopTime="0.00" timeLoss="14.77" rerouteNo="0" devices="vehroute_flow_7_increasing_0_S_right.0 tripinfo_flow_7_increasing_0_S_right.0" vType="bus" speedFactor="0.89" vaporized=""/>
    <tripinfo id="flow_2_increasing_0_N_left.0" depart="0.00" departLane="N_in_1" departPos="8.27" departSpeed="8.33" departDelay="0.00" arrival="49.00" arrivalLane="N_out_1" arrivalPos="189.60" arrivalSpeed="13.57" duration="49.00" routeLength="375.60" waitingTime="13.00" waitingCount="1" stopTime="0.00" timeLoss="20.75" rerouteNo="0" devices="vehroute_flow_2_increasing_0_N_left.0 tripinfo_flow_2_increasing_0_N_left.0" vType="moto" speedFactor="1.02" vaporized=""/>
    <tripinfo id="flow_1_increasing_0_N_straight.0" depart="0.00" departLane="N_in_0" departPos="8.62" departSpeed="8.51" departDelay="0.00" arrival="55.00" arrivalLane="S_out_0" arrivalPos="189.60" arrivalSpeed="11.71" duration="55.00" routeLength="391.38" waitingTime="11.00" waitingCount="1" stopTime="0.00" timeLoss="22.05" rerouteNo="0" devices="vehroute_flow_1_increasing_0_N_straight.0 tripinfo_flow_1_increasing_0_N_straight.0" vType="truck" speedFactor="0.86" vaporized=""/>
    <tripinfo id="flow_9_increasing_0_E_straight.1" depart="65.00" departLane="E_in_1" departPos="177.29" departSpeed="8.41" departDelay="0.90" arrival="86.00" arrivalLane="W_out_0" arrivalPos="189.60" arrivalSpeed="15.47" duration="21.00" routeLength="222.71" waitingTime="1.00" waitingCount="1" stopTime="0.00" timeLoss="6.88" rerouteNo="0" devices="vehroute_flow_9_increasing_0_E_straight.1 tripinfo_flow_9_increasing_0_E_straight.1" vType="moto" speedFactor="1.16" vaporized=""/>
    <tripinfo id="flow_5_increasing_0_S_straight.1" depart="67.00" departLane="E_in_0" departPos="93.39" departSpeed="3.73" departDelay="0.67" arrival="97.00" arrivalLane="E_out_1" arrivalPos="189.60" arrivalSpeed="11.95" duration="30.00" routeLength="290.48" waitingTime="0.00" waitingCount="0" stopTime="0.00" timeLoss="5.00" rerouteNo="0" devices="vehroute_flow_5_increasing_0_S_straight.1 tripinfo_flow_5_increasing_0_S_straight.1" vType="moto" speedFactor="0.87" vaporized=""/>
    <tripinfo id="flow_1_increasing_0_N_straight.1" depart="70.00" departLane="N_in_1" departPos="28.79" departSpeed="10.22" departDelay="0.19" arrival="98.00" arrivalLane="S_out_1" arrivalPos="189.60" arrivalSpeed="14.99" duration="28.00" routeLength="371.21" waitingTime="0.00" waitingCount="0" stopTime="0.00" timeLoss="4.43" rerouteNo="0" devices="vehroute_flow_1_increasing_0_N_straight.1 tripinfo_flow_1_increasing_0_N_straight.1" vType="moto" speedFactor="1.15" vaporized=""/>
    <tripinfo id="flow_13_increasing_0_W_straight.1" depart="68.00" departLane="S_in_1" departPos="181.05" departSpeed="2.69" departDelay="0.66" arrival="99.00" arrivalLane="E_out_0" arrivalPos="189.60" arrivalSpeed="14.80" duration="31.00" routeLength="207.18" waitingTime="9.00" waitingCount="1" stopTime="0.00" timeLoss="17.24" rerouteNo="0" devices="vehroute_flow_13_increasing_0_W_straight.1 tripinfo_flow_13_increasing_0_W_straight.1" vType="moto" speedFactor="1.19" vaporized=""/>
    <tripinfo id="flow_13_increasing_0_W_straight.2" depart="135.00" departLane="S_in_1" departPos="64.28" departSpeed="4.21" departDelay="0.32" arrival="167.00" arrivalLane="E_out_0" arrivalPos="189.60" arrivalSpeed="13.15" duration="32.00" routeLength="323.95" waitingTime="0.00" waitingCount="0" stopTime="0.00" timeLoss="7.11" rerouteNo="0" devices="vehroute_flow_13_increasing_0_W_straight.2 tripinfo_flow_13_increasing_0_W_straight.2" vType="truck" speedFactor="0.97" vaporized=""/>
    <tripinfo id="flow_1_increasing_0_N_straight.2" depart="140.00" departLane="N_in_1" departPos="39.28" departSpeed="7.32" departDelay="0.38" arrival="170.00" arrivalLane="S_out_0" arrivalPos="189.60" arrivalSpeed="12.71" duration="30.00" routeLength="360.72" waitingTime="0.00" waitingCount="0" stopTime="0.00" timeLoss="1.73" rerouteNo="0" devices="vehroute_flow_1_increasing_0_N_straight.2 tripinfo_flow_1_increasing_0_N_straight.2" vType="moto" speedFactor="0.93" vaporized=""/>
    <tripinfo id="flow_9_increasing_0_E_straight.2" depart="129.00" departLane="E_in_1" departPos="103.67" departSpeed="3.85" departDelay="0.79" arrival="176.00" arrivalLane="W_out_0" arrivalPos="189.60" arrivalSpeed="13.59" duration="47.00" routeLength="296.33" waitingTime="18.00" waitingCount="1" stopTime="0.00" timeLoss="25.28" rerouteNo="0" devices="vehroute_flow_9_increasing_0_E_straight.2 tripinfo_flow_9_increasing_0_E_straight.2" vType="moto" speedFactor="0.99" vaporized=""/>
    <tripinfo id="flow_5_increasing_0_S_straight.2" depart="133.00" departLane="E_in_0" departPos="33.93" departSpeed="0.90" departDelay="0.33" arrival="177.00" arrivalLane="E_out_1" arrivalPos="189.60" arrivalSpeed="12.58" duration="44.00" routeLength="349.94" waitingTime="6.00" waitingCount="1" stopTime="0.00" timeLoss="16.04" rerouteNo="0" devices="vehroute_flow_5_increasing_0_S_straight.2 tripinfo_flow_5_increasing_0_S_straight.2" vType="moto" speedFactor="0.96" vaporized=""/>
    <tripinfo id="flow_6_increasing_0_S_left.1" depart="166.00" departLane="S_in_1" departPos="97.23" departSpeed="5.84" departDelay="0.16" arrival="191.00" arrivalLane="W_out_1" arrivalPos="189.60" arrivalSpeed="13.92" duration="25.00" routeLength="301.32" waitingTime="0.00" waitingCount="0" stopTime="0.00" timeLoss="4.20" rerouteNo="0" devices="vehroute_flow_6_increasing_0_S_left.1 tripinfo_flow_6_increasing_0_S_left.1" vType="moto" speedFactor="1.08" vaporized=""/>
    <tripinfo id="flow_14_increasing_0_W_left.1" depart="166.00" departLane="N_in_1" departPos="79.10" departSpeed="8.50" departDelay="0.16" arrival="193.00" arrivalLane="N_out_1" arrivalPos="189.60" arrivalSpeed="13.50" duration="27.00" routeLength="304.77" waitingTime="0.00" waitingCount="0" stopTime="0.00" timeLoss="4.69" rerouteNo="0" devices="vehroute_flow_14_increasing_0_W_left.1 tripinfo_flow_14_increasing_0_W_left.1" vType="moto" speedFactor="1.05" vaporized=""/>
    <tripinfo id="flow_15_increasing_0_W_right.1" depart="164.00" departLane="W_in_0" departPos="80.24" departSpeed="9.78" departDelay="0.60" arrival="201.00" arrivalLane="S_out_0" arrivalPos="189.60" arrivalSpeed="14.15" duration="37.00" routeLength="307.99" waitingTime="8.00" waitingCount="1" stopTime="0.00" timeLoss="14.73" rerouteNo="0" devices="vehroute_flow_15_increasing_0_W_right.1 tripinfo_flow_15_increasing_0_W_right.1" vType="moto" speedFactor="1.04" vaporized=""/>
    <tripinfo id="flow_10_increasing_0_E_left.1" depart="170.00" departLane="E_in_0" departPos="4.52" departSpeed="10.46" departDelay="0.80" arrival="211.00" arrivalLane="S_out_1" arrivalPos="189.60" arrivalSpeed="9.59" duration="41.00" routeLength="394.03" waitingTime="0.00" waitingCount="0" stopTime="0.00" timeLoss="3.32" rerouteNo="0" devices="vehroute_flow_10_increasing_0_E_left.1 tripinfo_flow_10_increasing_0_E_left.1" vType="car" speedFactor="0.77" vaporized=""/>
    <tripinfo id="flow_7_increasing_0_S_right.1" depart="163.00" departLane="W_in_0" departPos="54.99" departSpeed="3.84" departDelay="0.40" arrival="212.00" arrivalLane="S_out_0" arrivalPos="189.60" arrivalSpeed="10.77" duration="49.00" routeLength="333.24" waitingTime="2.00" waitingCount="1" stopTime="0.00" timeLoss="17.23" rerouteNo="0" devices="vehroute_flow_7_increasing_0_S_right.1 tripinfo_flow_7_increasing_0_S_right.1" vType="container" speedFactor="0.78" vaporized=""/>
    <tripinfo id="flow_11_increasing_0_E_right.1" depart="170.00" departLane="W_in_0" departPos="80.60" departSpeed="1.28" departDelay="0.80" arrival="214.00" arrivalLane="S_out_1" arrivalPos="189.60" arrivalSpeed="11.94" duration="44.00" routeLength="307.63" waitingTime="2.00" waitingCount="1" stopTime="0.00" timeLoss="17.27" rerouteNo="0" devices="vehroute_flow_11_increasing_0_E_right.1 tripinfo_flow_11_increasing_0_E_right.1" vType="moto" speedFactor="0.88" vaporized=""/>
    <tripinfo id="flow_13_increasing_0_W_straight.3" depart="203.00" departLane="S_in_0" departPos="148.08" departSpeed="10.59" departDelay="0.98" arrival="222.00" arrivalLane="E_out_0" arrivalPos="189.60" arrivalSpeed="15.81" duration="19.00" routeLength="240.15" waitingTime="0.00" waitingCount="0" stopTime="0.00" timeLoss="3.31" rerouteNo="0" devices="vehroute_flow_13_increasing_0_W_straight.3 tripinfo_flow_13_increasing_0_W_straight.3" vType="moto" speedFactor="1.20" vaporized=""/>
    <tripinfo id="flow_2_increasing_0_N_left.1" depart="163.00" departLane="N_in_0" departPos="15.17" departSpeed="0.73" departDelay="0.40" arrival="223.00" arrivalLane="N_out_1" arrivalPos="189.60" arrivalSpeed="15.29" duration="60.00" routeLength="368.70" waitingTime="26.00" waitingCount="1" stopTime="0.00" timeLoss="35.21" rerouteNo="0" devices="vehroute_flow_2_increasing_0_N_left.1 tripinfo_flow_2_increasing_0_N_left.1" vType="moto" speedFactor="1.12" vaporized=""/>
    <tripinfo id="flow_3_increasing_0_N_right.1" depart="174.00" departLane="N_in_1" departPos="108.76" departSpeed="5.79" departDelay="0.39" arrival="234.00" arrivalLane="S_out_0" arrivalPos="189.60" arrivalSpeed="12.45" duration="60.00" routeLength="291.24" waitingTime="18.00" waitingCount="1" stopTime="0.00" timeLoss="36.67" rerouteNo="0" devices="vehroute_flow_3_increasing_0_N_right.1 tripinfo_flow_3_increasing_0_N_right.1" vType="container" speedFactor="0.91" vaporized=""/>
    <tripinfo id="flow_1_increasing_0_N_straight.3" depart="210.00" departLane="N_in_1" departPos="23.57" departSpeed="10.47" departDelay="0.58" arrival="237.00" arrivalLane="S_out_1" arrivalPos="189.60" arrivalSpeed="14.23" duration="27.00" routeLength="376.43" waitingTime="0.00" waitingCount="0" stopTime="0.00" timeLoss="1.30" rerouteNo="0" devices="vehroute_flow_1_increasing_0_N_straight.3 tripinfo_flow_1_increasing_0_N_straight.3" vType="moto" speedFactor="1.06" vaporized=""/>
    <tripinfo id="flow_5_increasing_0_S_straight.3" depart="200.00" departLane="E_in_0" departPos="19.25" departSpeed="10.47" departDelay="1.00" arrival="247.00" arrivalLane="E_out_1" arrivalPos="189.60" arrivalSpeed="13.76" duration="47.00" routeLength="364.62" waitingTime="15.00" waitingCount="1" stopTime="0.00" timeLoss="21.41" rerouteNo="0" devices="vehroute_flow_5_increasing_0_S_straight.3 tripinfo_flow_5_increasing_0_S_straight.3" vType="moto" speedFactor="1.08" vaporized=""/>
    <tripinfo id="flow_9_increasing_0_E_straight.3" depart="193.00" departLane="E_in_1" departPos="77.94" departSpeed="3.51" departDelay="0.69" arrival="253.00" arrivalLane="W_out_0" arrivalPos="189.60" arrivalSpeed="11.22" duration="60.00" routeLength="322.06" waitingTime="22.00" waitingCount="1" stopTime="0.00" timeLoss="32.43" rerouteNo="0" devices="vehroute_flow_9_increasing_0_E_straight.3 tripinfo_flow_9_increasing_0_E_straight.3" vType="truck" speedFactor="0.85" vaporized=""/>
    <tripinfo id="flow_9_increasing_0_E_straight.4" depart="257.00" departLane="E_in_0" departPos="167.23" departSpeed="1.87" departDelay="0.59" arrival="281.00" arrivalLane="W_out_0" arrivalPos="189.60" arrivalSpeed="12.52" duration="24.00" routeLength="232.77" waitingTime="0.00" waitingCount="0" stopTime="0.00" timeLoss="6.04" rerouteNo="0" devices="vehroute_flow_9_increasing_0_E_straight.4 tripinfo_flow_9_increasing_0_E_straight.4" vType="bus" speedFactor="0.95" vaporized=""/>
    <tripinfo id="flow_13_increasing_0_W_straight.4" depart="270.00" departLane="S_in_0" departPos="185.47" departSpeed="5.66" departDelay="0.64" arrival="291.00" arrivalLane="E_out_0" arrivalPos="189.60" arrivalSpeed="12.00" duration="21.00" routeLength="202.76" waitingTime="0.00" waitingCount="0" stopTime="0.00" timeLoss="2.86" rerouteNo="0" devices="vehroute_flow_13_increasing_0_W_straight.4 tripinfo_flow_13_increasing_0_W_straight.4" vType="truck" speedFactor="0.87" vaporized=""/>
    <tripinfo id="flow_1_increasing_0_N_straight.4" depart="280.00" departLane="N_in_1" departPos="171.48" departSpeed="2.05" departDelay="0.77" arrival="300.00" arrivalLane="S_out_1" arrivalPos="189.60" arrivalSpeed="12.69" duration="20.00" routeLength="228.52" waitingTime="0.00" waitingCount="0" stopTime="0.00" timeLoss="2.60" rerouteNo="0" devices="vehroute_flow_1_increasing_0_N_straight.4 tripinfo_flow_1_increasing_0_N_straight.4" vType="car" speedFactor="0.96" vaporized=""/>
    <tripinfo id="flow_5_increasing_0_S_straight.4" depart="266.00" departLane="E_in_0" departPos="8.08" departSpeed="6.48" departDelay="0.66" arrival="317.00" arrivalLane="E_out_0" arrivalPos="189.60" arrivalSpeed="13.36" duration="51.00" routeLength="375.79" waitingTime="6.00" waitingCount="1" stopTime="0.00" timeLoss="21.53" rerouteNo="0" devices="vehroute_flow_5_increasing_0_S_straight.4 tripinfo_flow_5_increasing_0_S_straight.4" vType="container" speedFactor="0.97" vaporized=""/>
    <tripinfo id="flow_29_increasing_300_W_straight.0" depart="300.00" departLane="W_in_1" departPos="148.65" departSpeed="13.28" departDelay="0.00" arrival="319.00" arrivalLane="E_out_1" arrivalPos="189.60" arrivalSpeed="13.20" duration="19.00" routeLength="251.35" waitingTime="0.00" waitingCount="0" stopTime="0.00" timeLoss="0.93" rerouteNo="0" devices="vehroute_flow_29_increasing_300_W_straight.0 tripinfo_flow_29_increasing_300_W_straight.0" vType="moto" speedFactor="1.02" vaporized=""/>
    <tripinfo id="flow_27_increasing_300_E_right.0" depart="300.00" departLane="E_in_0" departPos="161.41" departSpeed="1.76" departDelay="0.00" arrival="320.00" arrivalLane="N_out_0" arrivalPos="189.60" arrivalSpeed="15.25" duration="20.00" routeLength="226.82" waitingTime="0.00" waitingCount="0" stopTime="0.00" timeLoss="4.26" rerouteNo="0" devices="vehroute_flow_27_increasing_300_E_right.0 tripinfo_flow_27_increasing_300_E_right.0" vType="moto" speedFactor="1.10" vaporized=""/>
    <tripinfo id="flow_21_increasing_300_S_straight.0" depart="300.00" departLane="E_in_0" departPos="104.14" departSpeed="13.49" departDelay="0.00" arrival="323.00" arrivalLane="W_out_0" arrivalPos="189.60" arrivalSpeed="13.76" duration="23.00" routeLength="295.86" waitingTime="0.00" waitingCount="0" stopTime="0.00" timeLoss="1.37" rerouteNo="0" devices="vehroute_flow_21_increasing_300_S_straight.0 tripinfo_flow_21_increasing_300_S_straight.0" vType="moto" speedFactor="1.03" vaporized=""/>
    <tripinfo id="flow_19_increasing_300_N_right.0" depart="300.00" departLane="W_in_1" departPos="108.70" departSpeed="7.53" departDelay="0.00" arrival="325.00" arrivalLane="E_out_0" arrivalPos="189.60" arrivalSpeed="12.17" duration="25.00" routeLength="291.30" waitingTime="0.00" waitingCount="0" stopTime="0.00" timeLoss="1.33" rerouteNo="0" devices="vehroute_flow_19_increasing_300_N_right.0 tripinfo_flow_19_increasing_300_N_right.0" vType="car" speedFactor="0.91" vaporized=""/>
    <tripinfo id="flow_25_increasing_300_E_straight.0" depart="300.00" departLane="E_in_1" departPos="124.88" departSpeed="0.01" departDelay="0.00" arrival="327.00" arrivalLane="W_out_0" arrivalPos="189.60" arrivalSpeed="14.05" duration="27.00" routeLength="275.12" waitingTime="0.00" waitingCount="0" stopTime="0.00" timeLoss="7.92" rerouteNo="0" devices="vehroute_flow_25_increasing_300_E_straight.0 tripinfo_flow_25_increasing_300_E_straight.0" vType="moto" speedFactor="1.04" vaporized=""/>
    <tripinfo id="flow_28_increasing_300_E_uturn.0" depart="300.00" departLane="E_in_1" departPos="188.98" departSpeed="0.62" departDelay="0.00" arrival="329.00" arrivalLane="E_out_1" arrivalPos="189.60" arrivalSpeed="11.62" duration="29.00" routeLength="194.89" waitingTime="7.00" waitingCount="1" stopTime="0.00" timeLoss="11.69" rerouteNo="0" devices="vehroute_flow_28_increasing_300_E_uturn.0 tripinfo_flow_28_increasing_300_E_uturn.0" vType="car" speedFactor="0.90" vaporized=""/>
    <tripinfo id="flow_30_increasing_300_W_left.0" depart="300.00" departLane="W_in_0" departPos="63.10" departSpeed="12.88" departDelay="0.00" arrival="330.00" arrivalLane="N_out_1" arrivalPos="189.60" arrivalSpeed="15.11" duration="30.00" routeLength="335.45" waitingTime="1.00" waitingCount="1" stopTime="0.00" timeLoss="7.39" rerouteNo="0" devices="vehroute_flow_30_increasing_300_W_left.0 tripinfo_flow_30_increasing_300_W_left.0" vType="moto" speedFactor="1.10" vaporized=""/>
    <tripinfo id="flow_23_increasing_300_S_right.0" depart="300.00" departLane="S_in_0" departPos="31.76" departSpeed="13.40" departDelay="0.00" arrival="332.00" arrivalLane="E_out_0" arrivalPos="189.60" arrivalSpeed="13.73" duration="32.00" routeLength="356.47" waitingTime="0.00" waitingCount="0" stopTime="0.00" timeLoss="6.52" rerouteNo="0" devices="vehroute_flow_23_increasing_300_S_right.0 tripinfo_flow_23_increasing_300_S_right.0" vType="moto" speedFactor="1.07" vaporized=""/>
    <tripinfo id="flow_17_increasing_300_N_straight.0" depart="300.00" departLane="N_in_0" departPos="81.69" departSpeed="8.64" departDelay="0.00" arrival="334.00" arrivalLane="S_out_0" arrivalPos="189.60" arrivalSpeed="12.53" duration="34.00" routeLength="318.31" waitingTime="3.00" waitingCount="1" stopTime="0.00" timeLoss="9.48" rerouteNo="0" devices="vehroute_flow_17_increasing_300_N_straight.0 tripinfo_flow_17_increasing_300_N_straight.0" vType="car" speedFactor="0.94" vaporized=""/>
    <tripinfo id="flow_32_increasing_300_W_uturn.0" depart="300.00" departLane="N_in_1" departPos="69.49" departSpeed="8.39" departDelay="0.00" arrival="336.00" arrivalLane="S_out_0" arrivalPos="189.60" arrivalSpeed="13.09" duration="36.00" routeLength="330.51" waitingTime="0.00" waitingCount="0" stopTime="0.00" timeLoss="11.04" rerouteNo="0" devices="vehroute_flow_32_increasing_300_W_uturn.0 tripinfo_flow_32_increasing_300_W_uturn.0" vType="moto" speedFactor="0.98" vaporized=""/>
    <tripinfo id="flow_20_increasing_300_N_uturn.0" depart="300.00" departLane="N_in_0" departPos="121.56" departSpeed="10.53" departDelay="0.00" arrival="337.00" arrivalLane="N_out_1" arrivalPos="189.60" arrivalSpeed="11.58" duration="37.00" routeLength="262.31" waitingTime="9.00" waitingCount="2" stopTime="0.00" timeLoss="14.01" rerouteNo="0" devices="vehroute_flow_20_increasing_300_N_uturn.0 tripinfo_flow_20_increasing_300_N_uturn.0" vType="car" speedFactor="0.88" vaporized=""/>
    <tripinfo id="flow_31_increasing_300_W_right.0" depart="300.00" departLane="N_in_1" departPos="84.66" departSpeed="2.07" departDelay="0.00" arrival="339.00" arrivalLane="N_out_1" arrivalPos="189.60" arrivalSpeed="12.89" duration="39.00" routeLength="299.21" waitingTime="3.00" waitingCount="1" stopTime="0.00" timeLoss="14.90" rerouteNo="0" devices="vehroute_flow_31_increasing_300_W_right.0 tripinfo_flow_31_increasing_300_W_right.0" vType="moto" speedFactor="0.97" vaporized=""/>
    <tripinfo id="flow_22_increasing_300_S_left.0" depart="300.00" departLane="S_in_1" departPos="168.21" departSpeed="11.63" departDelay="0.00" arrival="340.00" arrivalLane="W_out_1" arrivalPos="189.60" arrivalSpeed="11.73" duration="40.00" routeLength="230.34" waitingTime="12.00" waitingCount="2" stopTime="0.00" timeLoss="20.70" rerouteNo="0" devices="vehroute_flow_22_increasing_300_S_left.0 tripinfo_flow_22_increasing_300_S_left.0" vType="moto" speedFactor="0.91" vaporized=""/>
    <tripinfo id="flow_18_increasing_300_N_left.0" depart="300.00" departLane="N_in_0" departPos="71.94" departSpeed="3.59" departDelay="0.00" arrival="341.00" arrivalLane="E_out_1" arrivalPos="189.60" arrivalSpeed="12.34" duration="41.00" routeLength="326.61" waitingTime="0.00" waitingCount="0" stopTime="0.00" timeLoss="14.42" rerouteNo="0" devices="vehroute_flow_18_increasing_300_N_left.0 tripinfo_flow_18_increasing_300_N_left.0" vType="moto" speedFactor="0.93" vaporized=""/>
    <tripinfo id="flow_24_increasing_300_S_uturn.0" depart="300.00" departLane="E_in_1" departPos="89.17" departSpeed="12.66" departDelay="0.00" arrival="345.00" arrivalLane="W_out_0" arrivalPos="189.60" arrivalSpeed="15.31" duration="45.00" routeLength="310.83" waitingTime="12.00" waitingCount="1" stopTime="0.00" timeLoss="25.07" rerouteNo="0" devices="vehroute_flow_24_increasing_300_S_uturn.0 tripinfo_flow_24_increasing_300_S_uturn.0" vType="moto" speedFactor="1.14" vaporized=""/>
    <tripinfo id="flow_26_increasing_300_E_left.0" depart="300.00" departLane="E_in_1" departPos="172.37" departSpeed="0.15" departDelay="0.00" arrival="348.00" arrivalLane="S_out_1" arrivalPos="189.60" arrivalSpeed="11.52" duration="48.00" routeLength="226.18" waitingTime="18.00" waitingCount="2" stopTime="0.00" timeLoss="28.54" rerouteNo="0" devices="vehroute_flow_26_increasing_300_E_left.0 tripinfo_flow_26_increasing_300_E_left.0" vType="moto" speedFactor="0.90" vaporized=""/>
    <tripinfo id="flow_25_increasing_300_E_straight.1" depart="347.00" departLane="E_in_1" departPos="109.89" departSpeed="2.21" departDelay="0.85" arrival="372.00" arrivalLane="W_out_0" arrivalPos="189.60" arrivalSpeed="13.06" duration="25.00" routeLength="290.11" waitingTime="0.00" waitingCount="0" stopTime="0.00" timeLoss="3.57" rerouteNo="0" devices="vehroute_flow_25_increasing_300_E_straight.1 tripinfo_flow_25_increasing_300_E_straight.1" vType="moto" speedFactor="1.01" vaporized=""/>
    <tripinfo id="flow_21_increasing_300_S_straight.1" depart="350.00" departLane="E_in_1" departPos="21.74" departSpeed="9.92" departDelay="0.52" arrival="382.00" arrivalLane="W_out_0" arrivalPos="189.60" arrivalSpeed="12.08" duration="32.00" routeLength="378.26" waitingTime="0.00" waitingCount="0" stopTime="0.00" timeLoss="1.11" rerouteNo="0" devices="vehroute_flow_21_increasing_300_S_straight.1 tripinfo_flow_21_increasing_300_S_straight.1" vType="truck" speedFactor="0.90" vaporized=""/>
    <tripinfo id="flow_29_increasing_300_W_straight.1" depart="350.00" departLane="W_in_0" departPos="43.18" departSpeed="2.51" departDelay="0.26" arrival="386.00" arrivalLane="E_out_0" arrivalPos="189.60" arrivalSpeed="10.30" duration="36.00" routeLength="356.82" waitingTime="0.00" waitingCount="0" stopTime="0.00" timeLoss="3.70" rerouteNo="0" devices="vehroute_flow_29_increasing_300_W_straight.1 tripinfo_flow_29_increasing_300_W_straight.1" vType="moto" speedFactor="0.80" vaporized=""/>