<?xml version="1.0" encoding="UTF-8"?>

<!-- generated on 2025-12-09 21:26:59 by Eclipse SUMO sumo Version 1.18.0
<configuration xmlns:xsi="http://www.w3.org/2001/XMLSchema-instance" xsi:noNamespaceSchemaLocation="http://sumo.dlr.de/xsd/sumoConfiguration.xsd">

    <input>
        <net-file value="nets/120p4k/net.net.xml"/>
        <route-files value="nets/120p4k/route_temp_288_128717304264496_34832144.rou.xml"/>
    </input>

    <output>
        <summary-output value="result_ddqn_0.9_0.3/summary_ep_3.xml"/>
        <tripinfo-output value="result_ddqn_0.9_0.3/tripinfo_ep_3.xml"/>
        <vehroute-output value="result_ddqn_0.9_0.3/vehroute_ep_3.xml"/>
    </output>

    <time>
        <begin value="0"/>
    </time>

    <report>
        <verbose value="true"/>
        <no-warnings value="true"/>
        <no-step-log value="true"/>
    </report>

    <traci_server>
        <remote-port value="47649"/>
    </traci_server>

    <gui_only>
        <gui-settings-file value="nets/120p4k/gui-settings.xml"/>
        <quit-on-end value="true"/>
    </gui_only>

</configuration>
-->

<tripinfos xmlns:xsi="http://www.w3.org/2001/XMLSchema-instance" xsi:noNamespaceSchemaLocation="http://sumo.dlr.de/xsd/tripinfo_file.xsd">
    <tripinfo id="flow_5_increasing_0_S_straight.0" depart="0.00" departLane="S_in_1" departPos="107.37" departSpeed="7.21" departDelay="0.00" arrival="21.00" arrivalLane="N_out_1" arrivalPos="189.60" arrivalSpeed="15.44" duration="21.00" routeLength="292.63" waitingTime="0.00" waitingCount="0" stopTime="0.00" timeLoss="2.21" rerouteNo="0" devices="vehroute_flow_5_increasing_0_S_straight.0 tripinfo_flow_5_increasing_0_S_straight.0" vType="moto" speedFactor="1.15" vaporized=""/>
    <tripinfo id="flow_3_increasing_0_N_right.0" depart="0.00" departLane="N_in_0" departPos="103.38" departSpeed="3.81" departDelay="0.00" arrival="24.00" arrivalLane="W_out_0" arrivalPos="189.60" arrivalSpeed="14.24" duration="24.00" routeLength="284.85" waitingTime="0.00" waitingCount="0" stopTime="0.00" timeLoss="4.62" rerouteNo="0" devices="vehroute_flow_3_increasing_0_N_right.0 tripinfo_flow_3_increasing_0_N_right.0" vType="moto" speedFactor="1.11" vaporized=""/>
    <tripinfo id="flow_6_increasing_0_S_left.0" depart="0.00" departLane="S_in_1" departPos="166.01" departSpeed="0.74" departDelay="0.00" arrival="25.00" arrivalLane="W_out_1" arrivalPos="189.60" arrivalSpeed="11.57" duration="25.00" routeLength="232.54" waitingTime="0.00" waitingCount="0" stopTime="0.00" timeLoss="4.29" rerouteNo="0" devices="vehroute_flow_6_increasing_0_S_left.0 tripinfo_flow_6_increasing_0_S_left.0" vType="moto" speedFactor="0.88" vaporized=""/>
    <tripinfo id="flow_16_increasing_0_W_uturn.0" depart="0.00" departLane="W_in_0" departPos="135.67" departSpeed="9.64" departDelay="0.00" arrival="36.00" arrivalLane="W_out_1" arrivalPos="189.60" arrivalSpeed="14.32" duration="36.00" routeLength="248.20" waitingTime="8.00" waitingCount="1" stopTime="0.00" timeLoss="17.03" rerouteNo="0" devices="vehroute_flow_16_increasing_0_W_uturn.0 tripinfo_flow_16_increasing_0_W_uturn.0" vType="moto" speedFactor="1.04" vaporized=""/>
    <tripinfo id="flow_9_increasing_0_E_straight.0" depart="0.00" departLane="E_in_0" departPos="168.29" departSpeed="10.73" departDelay="0.00" arrival="37.00" arrivalLane="W_out_0" arrivalPos="189.60" arrivalSpeed="12.33" duration="37.00" routeLength="231.71" waitingTime="13.00" waitingCount="1" stopTime="0.00" timeLoss="18.68" rerouteNo="0" devices="vehroute_flow_9_increasing_0_E_straight.0 tripinfo_flow_9_increasing_0_E_straight.0" vType="car" speedFactor="0.94" vaporized=""/>
    <tripinfo id="flow_8_increasing_0_S_uturn.0" depart="0.00" departLane="W_in_0" departPos="120.11" departSpeed="4.48" departDelay="0.00" arrival="38.00" arrivalLane="N_out_1" arrivalPos="189.60" arrivalSpeed="13.68" duration="38.00" routeLength="278.44" waitingTime="9.00" waitingCount="1" stopTime="0.00" timeLoss="17.45" rerouteNo="0" devices="vehroute_flow_8_increasing_0_S_uturn.0 tripinfo_flow_8_increasing_0_S_uturn.0" vType="moto" speedFactor="1.05" vaporized=""/>
    <tripinfo id="flow_15_increasing_0_W_right.0" depart="0.00" departLane="W_in_1" departPos="153.90" departSpeed="6.73" departDelay="0.00" arrival="39.00" arrivalLane="S_out_0" arrivalPos="189.60" arrivalSpeed="10.73" duration="39.00" routeLength="234.33" waitingTime="12.00" waitingCount="1" stopTime="0.00" timeLoss="17.63" rerouteNo="0" devices="vehroute_flow_15_increasing_0_W_right.0 tripinfo_flow_15_increasing_0_W_right.0" vType="moto" speedFactor="0.85" vaporized=""/>
    <tripinfo id="flow_4_increasing_0_N_uturn.0" depart="0.00" departLane="W_in_1" departPos="127.60" departSpeed="0.08" departDelay="0.00" arrival="41.00" arrivalLane="E_out_1" arrivalPos="189.60" arrivalSpeed="12.43" duration="41.00" routeLength="272.40" waitingTime="7.00" waitingCount="1" stopTime="0.00" timeLoss="18.99" rerouteNo="0" devices="vehroute_flow_4_increasing_0_N_uturn.0 tripinfo_flow_4_increasing_0_N_uturn.0" vType="moto" speedFactor="0.91" vaporized=""/>
    <tripinfo id="flow_14_increasing_0_W_left.0" depart="0.00" departLane="W_in_1" departPos="42.31" departSpeed="3.71" departDelay="0.00" arrival="41.00" arrivalLane="N_out_1" arrivalPos="189.60" arrivalSpeed="12.91" duration="41.00" routeLength="356.24" waitingTime="5.00" waitingCount="1" stopTime="0.00" timeLoss="14.52" rerouteNo="0" devices="vehroute_flow_14_increasing_0_W_left.0 tripinfo_flow_14_increasing_0_W_left.0" vType="moto" speedFactor="1.01" vaporized=""/>
    <tripinfo id="flow_11_increasing_0_E_right.0" depart="0.00" departLane="E_in_1" departPos="144.95" departSpeed="4.02" departDelay="0.00" arrival="42.00" arrivalLane="N_out_0" arrivalPos="189.60" arrivalSpeed="13.06" duration="42.00" routeLength="243.28" waitingTime="11.00" waitingCount="1" stopTime="0.00" timeLoss="22.55" rerouteNo="0" devices="vehroute_flow_11_increasing_0_E_right.0 tripinfo_flow_11_increasing_0_E_right.0" vType="bus" speedFactor="0.96" vaporized=""/>
    <tripinfo id="flow_2_increasing_0_N_left.0" depart="0.00" departLane="E_in_1" departPos="8.27" departSpeed="8.33" departDelay="0.00" arrival="44.00" arrivalLane="N_out_0" arrivalPos="189.60" arrivalSpeed="13.80" duration="44.00" routeLength="379.96" waitingTime="4.00" waitingCount="1" stopTime="0.00" timeLoss="15.68" rerouteNo="0" devices="vehroute_flow_2_increasing_0_N_left.0 tripinfo_flow_2_increasing_0_N_left.0" vType="moto" speedFactor="1.02" vaporized=""/>
    <tripinfo id="flow_13_increasing_0_W_straight.0" depart="0.00" departLane="W_in_0" departPos="77.99" departSpeed="3.97" departDelay="0.00" arrival="44.00" arrivalLane="E_out_0" arrivalPos="189.60" arrivalSpeed="11.70" duration="44.00" routeLength="322.01" waitingTime="4.00" waitingCount="1" stopTime="0.00" timeLoss="16.38" rerouteNo="0" devices="vehroute_flow_13_increasing_0_W_straight.0 tripinfo_flow_13_increasing_0_W_straight.0" vType="bus" speedFactor="0.86" vaporized=""/>
    <tripinfo id="flow_10_increasing_0_E_left.0" depart="0.00" departLane="E_in_0" departPos="44.88" departSpeed="8.19" departDelay="0.00" arrival="45.00" arrivalLane="S_out_1" arrivalPos="189.60" arrivalSpeed="14.58" duration="45.00" routeLength="353.67" waitingTime="9.00" waitingCount="2" stopTime="0.00" timeLoss="19.95" rerouteNo="0" devices="vehroute_flow_10_increasing_0_E_left.0 tripinfo_flow_10_increasing_0_E_left.0" vType="car" speedFactor="1.08" vaporized=""/>
    <tripinfo id="flow_7_increasing_0_S_right.0" depart="0.00" departLane="S_in_0" departPos="8.76" departSpeed="8.47" departDelay="0.00" arrival="53.00" arrivalLane="E_out_0" arrivalPos="189.60" arrivalSpeed="11.96" duration="53.00" routeLength="379.47" waitingTime="13.00" waitingCount="1" stopTime="0.00" timeLoss="21.34" rerouteNo="0" devices="vehroute_flow_7_increasing_0_S_right.0 tripinfo_flow_7_increasing_0_S_right.0" vType="bus" speedFactor="0.89" vaporized=""/>
    <tripinfo id="flow_12_increasing_0_E_uturn.0" depart="0.00" departLane="E_in_0" departPos="5.65" departSpeed="13.76" departDelay="0.00" arrival="61.00" arrivalLane="E_out_1" arrivalPos="189.60" arrivalSpeed="13.55" duration="61.00" routeLength="378.22" waitingTime="24.00" waitingCount="2" stopTime="0.00" timeLoss="33.71" rerouteNo="0" devices="vehroute_flow_12_increasing_0_E_uturn.0 tripinfo_flow_12_increasing_0_E_uturn.0" vType="moto" speedFactor="1.03" vaporized=""/>
    <tripinfo id="flow_1_increasing_0_N_straight.0" depart="0.00" departLane="W_in_0" departPos="8.62" departSpeed="8.51" departDelay="0.00" arrival="66.00" arrivalLane="W_out_0" arrivalPos="189.60" arrivalSpeed="11.69" duration="66.00" routeLength="375.25" waitingTime="18.00" waitingCount="2" stopTime="0.00" timeLoss="33.67" rerouteNo="0" devices="vehroute_flow_1_increasing_0_N_straight.0 tripinfo_flow_1_increasing_0_N_straight.0" vType="truck" speedFactor="0.86" vaporized=""/>
    <tripinfo id="flow_5_increasing_0_S_straight.1" depart="67.00" departLane="S_in_0" departPos="93.39" departSpeed="3.73" departDelay="0.67" arrival="95.00" arrivalLane="N_out_0" arrivalPos="189.60" arrivalSpeed="11.36" duration="28.00" routeLength="306.61" waitingTime="0.00" waitingCount="0" stopTime="0.00" timeLoss="2.41" rerouteNo="0" devices="vehroute_flow_5_increasing_0_S_straight.1 tripinfo_flow_5_increasing_0_S_straight.1" vType="moto" speedFactor="0.87" vaporized=""/>
    <tripinfo id="flow_9_increasing_0_E_straight.1" depart="65.00" departLane="E_in_1" departPos="177.29" departSpeed="8.41" departDelay="0.90" arrival="107.00" arrivalLane="W_out_0" arrivalPos="189.60" arrivalSpeed="15.44" duration="42.00" routeLength="222.71" waitingTime="19.00" waitingCount="1" stopTime="0.00" timeLoss="27.31" rerouteNo="0" devices="vehroute_flow_9_increasing_0_E_straight.1 tripinfo_flow_9_increasing_0_E_straight.1" vType="moto" speedFactor="1.16" vaporized=""/>
    <tripinfo id="flow_13_increasing_0_W_straight.1" depart="68.00" departLane="W_in_1" departPos="181.05" departSpeed="2.69" departDelay="0.66" arrival="107.00" arrivalLane="E_out_0" arrivalPos="189.60" arrivalSpeed="14.77" duration="39.00" routeLength="218.95" waitingTime="17.00" waitingCount="1" stopTime="0.00" timeLoss="24.56" rerouteNo="0" devices="vehroute_flow_13_increasing_0_W_straight.1 tripinfo_flow_13_increasing_0_W_straight.1" vType="moto" speedFactor="1.19" vaporized=""/>
    <tripinfo id="flow_1_increasing_0_N_straight.1" depart="70.00" departLane="W_in_1" departPos="28.79" departSpeed="10.22" departDelay="0.19" arrival="107.00" arrivalLane="W_out_1" arrivalPos="189.60" arrivalSpeed="15.52" duration="37.00" routeLength="355.08" waitingTime="6.00" waitingCount="1" stopTime="0.00" timeLoss="13.44" rerouteNo="0" devices="vehroute_flow_1_increasing_0_N_straight.1 tripinfo_flow_1_increasing_0_N_straight.1" vType="moto" speedFactor="1.15" vaporized=""/>
    <tripinfo id="flow_5_increasing_0_S_straight.2" depart="133.00" departLane="S_in_0" departPos="33.93" departSpeed="0.90" departDelay="0.33" arrival="165.00" arrivalLane="N_out_0" arrivalPos="189.60" arrivalSpeed="13.29" duration="32.00" routeLength="366.07" waitingTime="0.00" waitingCount="0" stopTime="0.00" timeLoss="3.74" rerouteNo="0" devices="vehroute_flow_5_increasing_0_S_straight.2 tripinfo_flow_5_increasing_0_S_straight.2" vType="moto" speedFactor="0.96" vaporized=""/>
    <tripinfo id="flow_9_increasing_0_E_straight.2" depart="129.00" departLane="E_in_1" departPos="103.67" departSpeed="3.85" departDelay="0.79" arrival="180.00" arrivalLane="W_out_0" arrivalPos="189.60" arrivalSpeed="13.59" duration="51.00" routeLength="296.33" waitingTime="23.00" waitingCount="1" stopTime="0.00" timeLoss="29.35" rerouteNo="0" devices="vehroute_flow_9_increasing_0_E_straight.2 tripinfo_flow_9_increasing_0_E_straight.2" vType="moto" speedFactor="0.99" vaporized=""/>
    <tripinfo id="flow_1_increasing_0_N_straight.2" depart="140.00" departLane="W_in_1" departPos="39.28" departSpeed="7.32" departDelay="0.38" arrival="181.00" arrivalLane="W_out_1" arrivalPos="189.60" arrivalSpeed="12.39" duration="41.00" routeLength="344.59" waitingTime="5.00" waitingCount="1" stopTime="0.00" timeLoss="12.55" rerouteNo="0" devices="vehroute_flow_1_increasing_0_N_straight.2 tripinfo_flow_1_increasing_0_N_straight.2" vType="moto" speedFactor="0.93" vaporized=""/>
    <tripinfo id="flow_13_increasing_0_W_straight.2" depart="135.00" departLane="W_in_1" departPos="64.28" departSpeed="4.21" departDelay="0.32" arrival="184.00" arrivalLane="E_out_0" arrivalPos="189.60" arrivalSpeed="13.25" duration="49.00" routeLength="335.72" waitingTime="12.00" waitingCount="1" stopTime="0.00" timeLoss="23.98" rerouteNo="0" devices="vehroute_flow_13_increasing_0_W_straight.2 tripinfo_flow_13_increasing_0_W_straight.2" vType="truck" speedFactor="0.97" vaporized=""/>
    <tripinfo id="flow_15_increasing_0_W_right.1" depart="164.00" departLane="W_in_0" departPos="80.24" departSpeed="9.78" departDelay="0.60" arrival="190.00" arrivalLane="S_out_0" arrivalPos="189.60" arrivalSpeed="13.79" duration="26.00" routeLength="307.99" waitingTime="0.00" waitingCount="0" stopTime="0.00" timeLoss="2.66" rerouteNo="0" devices="vehroute_flow_15_increasing_0_W_right.1 tripinfo_flow_15_increasing_0_W_right.1" vType="moto" speedFactor="1.04" vaporized=""/>
    <tripinfo id="flow_14_increasing_0_W_left.1" depart="166.00" departLane="W_in_1" departPos="79.10" departSpeed="8.50" departDelay="0.16" arrival="192.00" arrivalLane="N_out_1" arrivalPos="189.60" arrivalSpeed="14.10" duration="26.00" routeLength="319.45" waitingTime="0.00" waitingCount="0" stopTime="0.00" timeLoss="2.66" rerouteNo="0" devices="vehroute_flow_14_increasing_0_W_left.1 tripinfo_flow_14_increasing_0_W_left.1" vType="moto" speedFactor="1.05" vaporized=""/>
    <tripinfo id="flow_11_increasing_0_E_right.1" depart="170.00" departLane="E_in_0" departPos="166.00" departSpeed="1.28" departDelay="0.80" arrival="193.00" arrivalLane="N_out_0" arrivalPos="189.60" arrivalSpeed="11.94" duration="23.00" routeLength="222.23" waitingTime="0.00" waitingCount="0" stopTime="0.00" timeLoss="4.05" rerouteNo="0" devices="vehroute_flow_11_increasing_0_E_right.1 tripinfo_flow_11_increasing_0_E_right.1" vType="moto" speedFactor="0.88" vaporized=""/>
    <tripinfo id="flow_2_increasing_0_N_left.1" depart="163.00" departLane="E_in_0" departPos="15.17" departSpeed="0.73" departDelay="0.40" arrival="194.00" arrivalLane="N_out_0" arrivalPos="189.60" arrivalSpeed="14.52" duration="31.00" routeLength="373.06" waitingTime="0.00" waitingCount="0" stopTime="0.00" timeLoss="6.59" rerouteNo="0" devices="vehroute_flow_2_increasing_0_N_left.1 tripinfo_flow_2_increasing_0_N_left.1" vType="moto" speedFactor="1.12" vaporized=""/>
    <tripinfo id="flow_6_increasing_0_S_left.1" depart="166.00" departLane="S_in_1" departPos="97.23" departSpeed="5.84" departDelay="0.16" arrival="202.00" arrivalLane="W_out_1" arrivalPos="189.60" arrivalSpeed="14.47" duration="36.00" routeLength="301.32" waitingTime="7.00" waitingCount="1" stopTime="0.00" timeLoss="14.56" rerouteNo="0" devices="vehroute_flow_6_increasing_0_S_left.1 tripinfo_flow_6_increasing_0_S_left.1" vType="moto" speedFactor="1.08" vaporized=""/>
    <tripinfo id="flow_3_increasing_0_N_right.1" depart="174.00" departLane="N_in_0" departPos="93.41" departSpeed="11.76" departDelay="0.39" arrival="210.00" arrivalLane="W_out_0" arrivalPos="189.60" arrivalSpeed="12.52" duration="36.00" routeLength="294.82" waitingTime="0.00" waitingCount="0" stopTime="0.00" timeLoss="11.85" rerouteNo="0" devices="vehroute_flow_3_increasing_0_N_right.1 tripinfo_flow_3_increasing_0_N_right.1" vType="container" speedFactor="0.91" vaporized=""/>
    <tripinfo id="flow_7_increasing_0_S_right.1" depart="163.00" departLane="S_in_0" departPos="54.99" departSpeed="3.84" departDelay="0.40" arrival="213.00" arrivalLane="E_out_0" arrivalPos="189.60" arrivalSpeed="10.37" duration="50.00" routeLength="333.24" waitingTime="3.00" waitingCount="1" stopTime="0.00" timeLoss="17.77" rerouteNo="0" devices="vehroute_flow_7_increasing_0_S_right.1 tripinfo_flow_7_increasing_0_S_right.1" vType="container" speedFactor="0.78" vaporized=""/>
    <tripinfo id="flow_5_increasing_0_S_straight.3" depart="200.00" departLane="S_in_0" departPos="184.19" departSpeed="8.58" departDelay="1.00" arrival="216.00" arrivalLane="N_out_0" arrivalPos="189.60" arrivalSpeed="14.88" duration="16.00" routeLength="215.81" waitingTime="0.00" waitingCount="0" stopTime="0.00" timeLoss="0.95" rerouteNo="0" devices="vehroute_flow_5_increasing_0_S_straight.3 tripinfo_flow_5_increasing_0_S_straight.3" vType="moto" speedFactor="1.08" vaporized=""/>
    <tripinfo id="flow_13_increasing_0_W_straight.3" depart="203.00" departLane="W_in_0" departPos="65.01" departSpeed="6.58" departDelay="0.98" arrival="226.00" arrivalLane="E_out_0" arrivalPos="189.60" arrivalSpeed="14.97" duration="23.00" routeLength="334.99" waitingTime="0.00" waitingCount="0" stopTime="0.00" timeLoss="1.99" rerouteNo="0" devices="vehroute_flow_13_increasing_0_W_straight.3 tripinfo_flow_13_increasing_0_W_straight.3" vType="moto" speedFactor="1.20" vaporized=""/>
    <tripinfo id="flow_9_increasing_0_E_straight.3" depart="193.00" departLane="E_in_0" departPos="86.42" departSpeed="8.41" departDelay="0.69" arrival="232.00" arrivalLane="W_out_0" arrivalPos="189.60" arrivalSpeed="11.15" duration="39.00" routeLength="313.58" waitingTime="1.00" waitingCount="1" stopTime="0.00" timeLoss="11.81" rerouteNo="0" devices="vehroute_flow_9_increasing_0_E_straight.3 tripinfo_flow_9_increasing_0_E_straight.3" vType="truck" speedFactor="0.85" vaporized=""/>
    <tripinfo id="flow_10_increasing_0_E_left.1" depart="170.00" departLane="E_in_0" departPos="4.52" departSpeed="10.46" departDelay="0.80" arrival="237.00" arrivalLane="S_out_0" arrivalPos="189.60" arrivalSpeed="9.58" duration="67.00" routeLength="394.03" waitingTime="21.00" waitingCount="2" stopTime="0.00" timeLoss="29.10" rerouteNo="0" devices="vehroute_flow_10_increasing_0_E_left.1 tripinfo_flow_10_increasing_0_E_left.1" vType="car" speedFactor="0.77" vaporized=""/>
    <tripinfo id="flow_1_increasing_0_N_straight.3" depart="210.00" departLane="W_in_1" departPos="88.42" departSpeed="1.49" departDelay="0.58" arrival="251.00" arrivalLane="W_out_1" arrivalPos="189.60" arrivalSpeed="13.87" duration="41.00" routeLength="295.45" waitingTime="10.00" waitingCount="1" stopTime="0.00" timeLoss="19.80" rerouteNo="0" devices="vehroute_flow_1_increasing_0_N_straight.3 tripinfo_flow_1_increasing_0_N_straight.3" vType="moto" speedFactor="1.06" vaporized=""/>
    <tripinfo id="flow_9_increasing_0_E_straight.4" depart="257.00" departLane="E_in_1" departPos="53.32" departSpeed="10.34" departDelay="0.59" arrival="285.00" arrivalLane="W_out_0" arrivalPos="189.60" arrivalSpeed="12.93" duration="28.00" routeLength="346.68" waitingTime="0.00" waitingCount="0" stopTime="0.00" timeLoss="1.08" rerouteNo="0" devices="vehroute_flow_9_increasing_0_E_straight.4 tripinfo_flow_9_increasing_0_E_straight.4" vType="bus" speedFactor="0.95" vaporized=""/>
    <tripinfo id="flow_13_increasing_0_W_straight.4" depart="270.00" departLane="W_in_0" departPos="70.46" departSpeed="10.65" departDelay="0.64" arrival="299.00" arrivalLane="E_out_0" arrivalPos="189.60" arrivalSpeed="11.61" duration="29.00" routeLength="329.54" waitingTime="0.00" waitingCount="0" stopTime="0.00" timeLoss="0.89" rerouteNo="0" devices="vehroute_flow_13_increasing_0_W_straight.4 tripinfo_flow_13_increasing_0_W_straight.4" vType="truck" speedFactor="0.87" vaporized=""/>
    <tripinfo id="flow_5_increasing_0_S_straight.4" depart="266.00" departLane="S_in_0" departPos="135.24" departSpeed="1.68" departDelay="0.66" arrival="311.00" arrivalLane="N_out_0" arrivalPos="189.60" arrivalSpeed="13.18" duration="45.00" routeLength="264.76" waitingTime="3.00" waitingCount="1" stopTime="0.00" timeLoss="24.59" rerouteNo="0" devices="vehroute_flow_5_increasing_0_S_straight.4 tripinfo_flow_5_increasing_0_S_straight.4" vType="container" speedFactor="0.97" vaporized=""/>
    <tripinfo id="flow_17_increasing_300_N_straight.0" depart="300.00" departLane="S_in_1" departPos="160.30" departSpeed="12.75" departDelay="0.00" arrival="322.00" arrivalLane="W_out_1" arrivalPos="189.60" arrivalSpeed="12.00" duration="22.00" routeLength="238.25" waitingTime="0.00" waitingCount="0" stopTime="0.00" timeLoss="2.00" rerouteNo="0" devices="vehroute_flow_17_increasing_300_N_straight.0 tripinfo_flow_17_increasing_300_N_straight.0" vType="car" speedFactor="0.94" vaporized=""/>
    <tripinfo id="flow_27_increasing_300_E_right.0" depart="300.00" departLane="E_in_1" departPos="174.17" departSpeed="9.64" departDelay="0.00" arrival="323.00" arrivalLane="N_out_0" arrivalPos="189.60" arrivalSpeed="14.73" duration="23.00" routeLength="214.06" waitingTime="2.00" waitingCount="1" stopTime="0.00" timeLoss="7.94" rerouteNo="0" devices="vehroute_flow_27_increasing_300_E_right.0 tripinfo_flow_27_increasing_300_E_right.0" vType="moto" speedFactor="1.10" vaporized=""/>
    <tripinfo id="flow_29_increasing_300_W_straight.0" depart="300.00" departLane="W_in_0" departPos="161.41" departSpeed="1.62" departDelay="0.00" arrival="324.00" arrivalLane="E_out_0" arrivalPos="189.60" arrivalSpeed="12.93" duration="24.00" routeLength="238.59" waitingTime="0.00" waitingCount="0" stopTime="0.00" timeLoss="6.39" rerouteNo="0" devices="vehroute_flow_29_increasing_300_W_straight.0 tripinfo_flow_29_increasing_300_W_straight.0" vType="moto" speedFactor="1.02" vaporized=""/>
    <tripinfo id="flow_1_increasing_0_N_straight.4" depart="280.00" departLane="W_in_1" departPos="74.07" departSpeed="0.57" departDelay="0.77" arrival="325.00" arrivalLane="W_out_1" arrivalPos="189.60" arrivalSpeed="12.85" duration="45.00" routeLength="309.80" waitingTime="10.00" waitingCount="1" stopTime="0.00" timeLoss="20.53" rerouteNo="0" devices="vehroute_flow_1_increasing_0_N_straight.4 tripinfo_flow_1_increasing_0_N_straight.4" vType="car" speedFactor="0.96" vaporized=""/>
    <tripinfo id="flow_25_increasing_300_E_straight.0" depart="300.00" departLane="E_in_1" departPos="65.57" departSpeed="2.42" departDelay="0.00" arrival="330.00" arrivalLane="W_out_1" arrivalPos="189.60" arrivalSpeed="14.06" duration="30.00" routeLength="334.43" waitingTime="0.00" waitingCount="0" stopTime="0.00" timeLoss="6.12" rerouteNo="0" devices="vehroute_flow_25_increasing_300_E_straight.0 tripinfo_flow_25_increasing_300_E_straight.0" vType="moto" speedFactor="1.04" vaporized=""/>
    <tripinfo id="flow_26_increasing_300_E_left.0" depart="300.00" departLane="E_in_0" departPos="64.25" departSpeed="5.90" departDelay="0.00" arrival="331.00" arrivalLane="S_out_1" arrivalPos="189.60" arrivalSpeed="12.16" duration="31.00" routeLength="334.30" waitingTime="0.00" waitingCount="0" stopTime="0.00" timeLoss="3.43" rerouteNo="0" devices="vehroute_flow_26_increasing_300_E_left.0 tripinfo_flow_26_increasing_300_E_left.0" vType="moto" speedFactor="0.90" vaporized=""/>
    <tripinfo id="flow_32_increasing_300_W_uturn.0" depart="300.00" departLane="E_in_1" departPos="39.34" departSpeed="4.51" departDelay="0.00" arrival="333.00" arrivalLane="S_out_1" arrivalPos="189.60" arrivalSpeed="12.66" duration="33.00" routeLength="359.21" waitingTime="0.00" waitingCount="0" stopTime="0.00" timeLoss="5.19" rerouteNo="0" devices="vehroute_flow_32_increasing_300_W_uturn.0 tripinfo_flow_32_increasing_300_W_uturn.0" vType="moto" speedFactor="0.98" vaporized=""/>
    <tripinfo id="flow_28_increasing_300_E_uturn.0" depart="300.00" departLane="W_in_1" departPos="172.37" departSpeed="6.07" departDelay="0.00" arrival="335.00" arrivalLane="N_out_1" arrivalPos="189.60" arrivalSpeed="11.68" duration="35.00" routeLength="226.18" waitingTime="8.00" waitingCount="2" stopTime="0.00" timeLoss="15.74" rerouteNo="0" devices="vehroute_flow_28_increasing_300_E_uturn.0 tripinfo_flow_28_increasing_300_E_uturn.0" vType="car" speedFactor="0.90" vaporized=""/>
    <tripinfo id="flow_22_increasing_300_S_left.0" depart="300.00" departLane="S_in_0" departPos="155.68" departSpeed="8.14" departDelay="0.00" arrival="337.00" arrivalLane="S_out_1" arrivalPos="189.60" arrivalSpeed="12.08" duration="37.00" routeLength="228.19" waitingTime="12.00" waitingCount="1" stopTime="0.00" timeLoss="18.46" rerouteNo="0" devices="vehroute_flow_22_increasing_300_S_left.0 tripinfo_flow_22_increasing_300_S_left.0" vType="moto" speedFactor="0.91" vaporized=""/>
    <tripinfo id="flow_20_increasing_300_N_uturn.0" depart="300.00" departLane="S_in_1" departPos="129.09" departSpeed="4.66" departDelay="0.00" arrival="338.00" arrivalLane="E_out_0" arrivalPos="189.60" arrivalSpeed="11.82" duration="38.00" routeLength="259.14" waitingTime="9.00" waitingCount="1" stopTime="0.00" timeLoss="16.20" rerouteNo="0" devices="vehroute_flow_20_increasing_300_N_uturn.0 tripinfo_flow_20_increasing_300_N_uturn.0" vType="car" speedFactor="0.88" vaporized=""/>
    <tripinfo id="flow_24_increasing_300_S_uturn.0" depart="300.00" departLane="S_in_0" departPos="91.52" departSpeed="14.07" departDelay="0.00" arrival="339.00" arrivalLane="S_out_1" arrivalPos="189.60" arrivalSpeed="15.50" duration="39.00" routeLength="292.35" waitingTime="8.00" waitingCount="1" stopTime="0.00" timeLoss="19.12" rerouteNo="0" devices="vehroute_flow_24_increasing_300_S_uturn.0 tripinfo_flow_24_increasing_300_S_uturn.0" vType="moto" speedFactor="1.14" vaporized=""/>
    <tripinfo id="flow_23_increasing_300_S_right.0" depart="300.00" departLane="S_in_1" departPos="2.77" departSpeed="8.14" departDelay="0.00" arrival="340.00" arrivalLane="E_out_0" arrivalPos="189.60" arrivalSpeed="14.65" duration="40.00" routeLength="385.46" waitingTime="3.00" waitingCount="1" stopTime="0.00" timeLoss="12.92" rerouteNo="0" devices="vehroute_flow_23_increasing_300_S_right.0 tripinfo_flow_23_increasing_300_S_right.0" vType="moto" speedFactor="1.07" vaporized=""/>
    <tripinfo id="flow_21_increasing_300_S_straight.0" depart="300.00" departLane="S_in_1" departPos="19.51" departSpeed="8.19" departDelay="0.00" arrival="341.00" arrivalLane="N_out_0" arrivalPos="189.60" arrivalSpeed="13.48" duration="41.00" routeLength="380.49" waitingTime="6.00" waitingCount="1" stopTime="0.00" timeLoss="14.10" rerouteNo="0" devices="vehroute_flow_21_increasing_300_S_straight.0 tripinfo_flow_21_increasing_300_S_straight.0" vType="moto" speedFactor="1.03" vaporized=""/>
    <tripinfo id="flow_18_increasing_300_N_left.0" depart="300.00" departLane="S_in_1" departPos="65.33" departSpeed="11.70" departDelay="0.00" arrival="342.00" arrivalLane="W_out_1" arrivalPos="189.60" arrivalSpeed="11.81" duration="42.00" routeLength="333.22" waitingTime="7.00" waitingCount="1" stopTime="0.00" timeLoss="14.72" rerouteNo="0" devices="vehroute_flow_18_increasing_300_N_left.0 tripinfo_flow_18_increasing_300_N_left.0" vType="moto" speedFactor="0.93" vaporized=""/>
    <tripinfo id="flow_25_increasing_300_E_straight.1" depart="347.00" departLane="E_in_0" departPos="61.32" departSpeed="6.26" departDelay="0.85" arrival="382.00" arrivalLane="W_out_0" arrivalPos="189.60" arrivalSpeed="13.56" duration="35.00" routeLength="338.68" waitingTime="2.00" waitingCount="1" stopTime="0.00" timeLoss="10.34" rerouteNo="0" devices="vehroute_flow_25_increasing_300_E_straight.1 tripinfo_flow_25_increasing_300_E_straight.1" vType="moto" speedFactor="1.01" vaporized=""/>
    <tripinfo id="flow_19_increasing_300_N_right.0" depart="300.00" departLane="W_in_1" departPos="111.69" departSpeed="5.48" departDelay="0.00" arrival="384.00" arrivalLane="W_out_1" arrivalPos="189.60" arrivalSpeed="12.60" duration="84.00" routeLength="272.18" waitingTime="49.00" waitingCount="1" stopTime="0.00" timeLoss="60.89" rerouteNo="0" devices="vehroute_flow_19_increasing_300_N_right.0 tripinfo_flow_19_increasing_300_N_right.0" vType="car" speedFactor="0.91" vaporized=""/>
    <tripinfo id="flow_31_increasing_300_W_right.0" depart="300.00" departLane="W_in_0" departPos="87.76" departSpeed="10.58" departDelay="0.00" arrival="385.00" arrivalLane="N_out_1" arrivalPos="189.60" arrivalSpeed="13.49" duration="85.00" routeLength="310.79" waitingTime="50.00" waitingCount="1" stopTime="0.00" timeLoss="60.90" rerouteNo="0" devices="vehroute_flow_31_increasing_300_W_right.0 tripinfo_flow_31_increasing_300_W_right.0" vType="moto" speedFactor="0.97" vaporized=""/>
    <tripinfo id="flow_30_increasing_300_W_left.0" depart="300.00" departLane="W_in_1" departPos="92.42" departSpeed="6.01" departDelay="0.00" arrival="386.00" arrivalLane="N_out_1" arrivalPos="189.60" arrivalSpeed="14.38" duration="86.00" routeLength="306.13" waitingTime="49.00" waitingCount="1" stopTime="0.00" timeLoss="65.23" rerouteNo="0" devices="vehroute_flow_30_increasing_300_W_left.0 tripinfo_flow_30_increasing_300_W_left.0" vType="moto" speedFactor="1.10" vaporized=""/>
    <tripinfo id="flow_29_increasing_300_W_straight.1" depart="350.00" departLane="W_in_1" departPos="109.89" departSpeed="1.75" departDelay="0.26" arrival="386.00" arrivalLane="E_out_0" arrivalPos="189.60" arrivalSpeed="10.10" duration="36.00" routeLength="290.11" waitingTime="1.00" waitingCount="1" stopTime="0.00" timeLoss="9.36" rerouteNo="0" devices="vehroute_flow_29_increasing_300_W_straight.1 tripinfo_flow_29_increasing_300_W_straight.1" vType="moto" speedFactor="0.80" vaporized=""/>
    <tripinfo id="flow_17_increasing_300_N_straight.1" depart="351.00" departLane="S_in_1" departPos="21.74" departSpeed="11.66" departDelay="0.74" arrival="412.00" arrivalLane="W_out_1" arrivalPos="189.60" arrivalSpeed="13.83" duration="61.00" routeLength="376.81" waitingTime="28.00" waitingCount="1" stopTime="0.00" timeLoss="35.05" rerouteNo="0" devices="vehroute_flow_17_increasing_300_N_straight.1 tripinfo_flow_17_increasing_300_N_straight.1" vType="moto" speedFactor="1.06" vaporized=""/>