<?xml version="1.0" encoding="UTF-8"?>

<!-- generated on 2025-12-09 21:29:14 by Eclipse SUMO sumo Version 1.18.0
<configuration xmlns:xsi="http://www.w3.org/2001/XMLSchema-instance" xsi:noNamespaceSchemaLocation="http://sumo.dlr.de/xsd/sumoConfiguration.xsd">

    <input>
        <net-file value="nets/120p4k/net.net.xml"/>
        <route-files value="nets/120p4k/route_temp_288_128717304264496_34832144.rou.xml"/>
    </input>

    <output>
        <summary-output value="result_ddqn_0.9_0.3/summary_ep_6.xml"/>
        <tripinfo-output value="result_ddqn_0.9_0.3/tripinfo_ep_6.xml"/>
        <vehroute-output value="result_ddqn_0.9_0.3/vehroute_ep_6.xml"/>
    </output>

    <time>
        <begin value="0"/>
    </time>

    <report>
        <verbose value="true"/>
        <no-warnings value="true"/>
        <no-step-log value="true"/>
    </report>

    <traci_server>
        <remote-port value="40567"/>
    </traci_server>

    <gui_only>
        <gui-settings-file value="nets/120p4k/gui-settings.xml"/>
        <quit-on-end value="true"/>
    </gui_only>

</configuration>
-->

<tripinfos xmlns:xsi="http://www.w3.org/2001/XMLSchema-instance" xsi:noNamespaceSchemaLocation="http://sumo.dlr.de/xsd/tripinfo_file.xsd">
    <tripinfo id="flow_5_increasing_0_S_straight.0" depart="0.00" departLane="S_in_1" departPos="107.37" departSpeed="7.21" departDelay="0.00" arrival="21.00" arrivalLane="N_out_1" arrivalPos="189.60" arrivalSpeed="15.92" duration="21.00" routeLength="292.63" waitingTime="0.00" waitingCount="0" stopTime="0.00" timeLoss="2.08" rerouteNo="0" devices="vehroute_flow_5_increasing_0_S_straight.0 tripinfo_flow_5_increasing_0_S_straight.0" vType="moto" speedFactor="1.15" vaporized=""/>
    <tripinfo id="flow_3_increasing_0_N_right.0" depart="0.00" departLane="N_in_0" departPos="103.38" departSpeed="3.81" departDelay="0.00" arrival="24.00" arrivalLane="W_out_0" arrivalPos="189.60" arrivalSpeed="15.18" duration="24.00" routeLength="284.85" waitingTime="0.00" waitingCount="0" stopTime="0.00" timeLoss="4.59" rerouteNo="0" devices="vehroute_flow_3_increasing_0_N_right.0 tripinfo_flow_3_increasing_0_N_right.0" vType="moto" speedFactor="1.11" vaporized=""/>
    <tripinfo id="flow_6_increasing_0_S_left.0" depart="0.00" departLane="S_in_1" departPos="166.01" departSpeed="0.74" departDelay="0.00" arrival="25.00" arrivalLane="W_out_1" arrivalPos="189.60" arrivalSpeed="11.45" duration="25.00" routeLength="232.54" waitingTime="0.00" waitingCount="0" stopTime="0.00" timeLoss="4.26" rerouteNo="0" devices="vehroute_flow_6_increasing_0_S_left.0 tripinfo_flow_6_increasing_0_S_left.0" vType="moto" speedFactor="0.88" vaporized=""/>
    <tripinfo id="flow_4_increasing_0_N_uturn.0" depart="0.00" departLane="N_in_1" departPos="127.60" departSpeed="0.08" departDelay="0.00" arrival="29.00" arrivalLane="N_out_1" arrivalPos="189.60" arrivalSpeed="12.06" duration="29.00" routeLength="256.27" waitingTime="0.00" waitingCount="0" stopTime="0.00" timeLoss="7.08" rerouteNo="0" devices="vehroute_flow_4_increasing_0_N_uturn.0 tripinfo_flow_4_increasing_0_N_uturn.0" vType="moto" speedFactor="0.91" vaporized=""/>
    <tripinfo id="flow_7_increasing_0_S_right.0" depart="0.00" departLane="S_in_0" departPos="97.26" departSpeed="8.47" departDelay="0.00" arrival="29.00" arrivalLane="E_out_0" arrivalPos="189.60" arrivalSpeed="12.39" duration="29.00" routeLength="290.97" waitingTime="0.00" waitingCount="0" stopTime="0.00" timeLoss="4.10" rerouteNo="0" devices="vehroute_flow_7_increasing_0_S_right.0 tripinfo_flow_7_increasing_0_S_right.0" vType="bus" speedFactor="0.89" vaporized=""/>
    <tripinfo id="flow_10_increasing_0_E_left.0" depart="0.00" departLane="N_in_0" departPos="6.15" departSpeed="3.56" departDelay="0.00" arrival="29.00" arrivalLane="S_out_0" arrivalPos="189.60" arrivalSpeed="14.24" duration="29.00" routeLength="393.85" waitingTime="0.00" waitingCount="0" stopTime="0.00" timeLoss="2.71" rerouteNo="0" devices="vehroute_flow_10_increasing_0_E_left.0 tripinfo_flow_10_increasing_0_E_left.0" vType="car" speedFactor="1.08" vaporized=""/>
    <tripinfo id="flow_2_increasing_0_N_left.0" depart="0.00" departLane="N_in_1" departPos="8.27" departSpeed="8.33" departDelay="0.00" arrival="31.00" arrivalLane="E_out_1" arrivalPos="189.60" arrivalSpeed="13.22" duration="31.00" routeLength="390.28" waitingTime="0.00" waitingCount="0" stopTime="0.00" timeLoss="2.69" rerouteNo="0" devices="vehroute_flow_2_increasing_0_N_left.0 tripinfo_flow_2_increasing_0_N_left.0" vType="moto" speedFactor="1.02" vaporized=""/>
    <tripinfo id="flow_16_increasing_0_W_uturn.0" depart="0.00" departLane="W_in_0" departPos="126.68" departSpeed="11.71" departDelay="0.00" arrival="35.00" arrivalLane="W_out_1" arrivalPos="189.60" arrivalSpeed="14.29" duration="35.00" routeLength="257.19" waitingTime="11.00" waitingCount="1" stopTime="0.00" timeLoss="16.18" rerouteNo="0" devices="vehroute_flow_16_increasing_0_W_uturn.0 tripinfo_flow_16_increasing_0_W_uturn.0" vType="moto" speedFactor="1.04" vaporized=""/>
    <tripinfo id="flow_9_increasing_0_E_straight.0" depart="0.00" departLane="W_in_1" departPos="75.19" departSpeed="11.55" departDelay="0.00" arrival="39.00" arrivalLane="W_out_1" arrivalPos="189.60" arrivalSpeed="11.72" duration="39.00" routeLength="308.68" waitingTime="7.00" waitingCount="1" stopTime="0.00" timeLoss="13.81" rerouteNo="0" devices="vehroute_flow_9_increasing_0_E_straight.0 tripinfo_flow_9_increasing_0_E_straight.0" vType="car" speedFactor="0.94" vaporized=""/>
    <tripinfo id="flow_15_increasing_0_W_right.0" depart="0.00" departLane="W_in_1" departPos="108.38" departSpeed="1.98" departDelay="0.00" arrival="39.00" arrivalLane="S_out_0" arrivalPos="189.60" arrivalSpeed="11.47" duration="39.00" routeLength="279.85" waitingTime="5.00" waitingCount="1" stopTime="0.00" timeLoss="13.44" rerouteNo="0" devices="vehroute_flow_15_increasing_0_W_right.0 tripinfo_flow_15_increasing_0_W_right.0" vType="moto" speedFactor="0.85" vaporized=""/>
    <tripinfo id="flow_11_increasing_0_E_right.0" depart="0.00" departLane="E_in_1" departPos="30.17" departSpeed="10.18" departDelay="0.00" arrival="40.00" arrivalLane="N_out_0" arrivalPos="189.60" arrivalSpeed="13.21" duration="40.00" routeLength="358.06" waitingTime="2.00" waitingCount="1" stopTime="0.00" timeLoss="12.04" rerouteNo="0" devices="vehroute_flow_11_increasing_0_E_right.0 tripinfo_flow_11_increasing_0_E_right.0" vType="bus" speedFactor="0.96" vaporized=""/>
    <tripinfo id="flow_12_increasing_0_E_uturn.0" depart="0.00" departLane="E_in_1" departPos="129.89" departSpeed="0.43" departDelay="0.00" arrival="40.00" arrivalLane="E_out_1" arrivalPos="189.60" arrivalSpeed="14.27" duration="40.00" routeLength="253.98" waitingTime="7.00" waitingCount="1" stopTime="0.00" timeLoss="20.33" rerouteNo="0" devices="vehroute_flow_12_increasing_0_E_uturn.0 tripinfo_flow_12_increasing_0_E_uturn.0" vType="moto" speedFactor="1.03" vaporized=""/>
    <tripinfo id="flow_13_increasing_0_W_straight.0" depart="0.00" departLane="W_in_0" departPos="23.77" departSpeed="1.55" departDelay="0.00" arrival="41.00" arrivalLane="E_out_0" arrivalPos="189.60" arrivalSpeed="11.45" duration="41.00" routeLength="376.23" waitingTime="0.00" waitingCount="0" stopTime="0.00" timeLoss="9.09" rerouteNo="0" devices="vehroute_flow_13_increasing_0_W_straight.0 tripinfo_flow_13_increasing_0_W_straight.0" vType="bus" speedFactor="0.86" vaporized=""/>
    <tripinfo id="flow_14_increasing_0_W_left.0" depart="0.00" departLane="W_in_1" departPos="50.07" departSpeed="13.54" departDelay="0.00" arrival="41.00" arrivalLane="N_out_1" arrivalPos="189.60" arrivalSpeed="13.32" duration="41.00" routeLength="348.48" waitingTime="6.00" waitingCount="1" stopTime="0.00" timeLoss="15.49" rerouteNo="0" devices="vehroute_flow_14_increasing_0_W_left.0 tripinfo_flow_14_increasing_0_W_left.0" vType="moto" speedFactor="1.01" vaporized=""/>
    <tripinfo id="flow_8_increasing_0_S_uturn.0" depart="0.00" departLane="E_in_0" departPos="178.04" departSpeed="8.03" departDelay="0.00" arrival="42.00" arrivalLane="S_out_1" arrivalPos="189.60" arrivalSpeed="14.13" duration="42.00" routeLength="220.51" waitingTime="17.00" waitingCount="2" stopTime="0.00" timeLoss="26.13" rerouteNo="0" devices="vehroute_flow_8_increasing_0_S_uturn.0 tripinfo_flow_8_increasing_0_S_uturn.0" vType="moto" speedFactor="1.05" vaporized=""/>
    <tripinfo id="flow_1_increasing_0_N_straight.0" depart="0.00" departLane="S_in_0" departPos="8.62" departSpeed="8.51" departDelay="0.00" arrival="55.00" arrivalLane="E_out_0" arrivalPos="189.60" arrivalSpeed="11.52" duration="55.00" routeLength="379.61" waitingTime="12.00" waitingCount="1" stopTime="0.00" timeLoss="22.24" rerouteNo="0" devices="vehroute_flow_1_increasing_0_N_straight.0 tripinfo_flow_1_increasing_0_N_straight.0" vType="truck" speedFactor="0.86" vaporized=""/>
    <tripinfo id="flow_1_increasing_0_N_straight.1" depart="70.00" departLane="S_in_1" departPos="121.65" departSpeed="2.92" departDelay="0.19" arrival="92.00" arrivalLane="E_out_0" arrivalPos="189.60" arrivalSpeed="15.26" duration="22.00" routeLength="266.58" waitingTime="0.00" waitingCount="0" stopTime="0.00" timeLoss="4.74" rerouteNo="0" devices="vehroute_flow_1_increasing_0_N_straight.1 tripinfo_flow_1_increasing_0_N_straight.1" vType="moto" speedFactor="1.15" vaporized=""/>
    <tripinfo id="flow_9_increasing_0_E_straight.1" depart="65.00" departLane="W_in_0" departPos="131.13" departSpeed="9.54" departDelay="0.90" arrival="96.00" arrivalLane="W_out_1" arrivalPos="189.60" arrivalSpeed="15.78" duration="31.00" routeLength="252.74" waitingTime="7.00" waitingCount="1" stopTime="0.00" timeLoss="14.26" rerouteNo="0" devices="vehroute_flow_9_increasing_0_E_straight.1 tripinfo_flow_9_increasing_0_E_straight.1" vType="moto" speedFactor="1.16" vaporized=""/>
    <tripinfo id="flow_13_increasing_0_W_straight.1" depart="68.00" departLane="W_in_1" departPos="31.93" departSpeed="9.28" departDelay="0.66" arrival="97.00" arrivalLane="E_out_1" arrivalPos="189.60" arrivalSpeed="15.86" duration="29.00" routeLength="368.07" waitingTime="0.00" waitingCount="0" stopTime="0.00" timeLoss="5.74" rerouteNo="0" devices="vehroute_flow_13_increasing_0_W_straight.1 tripinfo_flow_13_increasing_0_W_straight.1" vType="moto" speedFactor="1.19" vaporized=""/>
    <tripinfo id="flow_5_increasing_0_S_straight.1" depart="67.00" departLane="S_in_1" departPos="58.36" departSpeed="11.64" departDelay="0.67" arrival="113.00" arrivalLane="N_out_0" arrivalPos="189.60" arrivalSpeed="11.64" duration="46.00" routeLength="341.64" waitingTime="11.00" waitingCount="1" stopTime="0.00" timeLoss="17.43" rerouteNo="0" devices="vehroute_flow_5_increasing_0_S_straight.1 tripinfo_flow_5_increasing_0_S_straight.1" vType="moto" speedFactor="0.87" vaporized=""/>
    <tripinfo id="flow_9_increasing_0_E_straight.2" depart="129.00" departLane="W_in_1" departPos="52.87" departSpeed="0.38" departDelay="0.79" arrival="161.00" arrivalLane="W_out_1" arrivalPos="189.60" arrivalSpeed="13.65" duration="32.00" routeLength="331.00" waitingTime="0.00" waitingCount="0" stopTime="0.00" timeLoss="6.80" rerouteNo="0" devices="vehroute_flow_9_increasing_0_E_straight.2 tripinfo_flow_9_increasing_0_E_straight.2" vType="moto" speedFactor="0.99" vaporized=""/>
    <tripinfo id="flow_13_increasing_0_W_straight.2" depart="135.00" departLane="W_in_1" departPos="59.51" departSpeed="13.32" departDelay="0.32" arrival="163.00" arrivalLane="E_out_0" arrivalPos="189.60" arrivalSpeed="13.29" duration="28.00" routeLength="340.49" waitingTime="0.00" waitingCount="0" stopTime="0.00" timeLoss="2.35" rerouteNo="0" devices="vehroute_flow_13_increasing_0_W_straight.2 tripinfo_flow_13_increasing_0_W_straight.2" vType="truck" speedFactor="0.97" vaporized=""/>
    <tripinfo id="flow_5_increasing_0_S_straight.2" depart="133.00" departLane="S_in_1" departPos="12.70" departSpeed="12.41" departDelay="0.33" arrival="174.00" arrivalLane="N_out_0" arrivalPos="189.60" arrivalSpeed="12.47" duration="41.00" routeLength="387.30" waitingTime="5.00" waitingCount="1" stopTime="0.00" timeLoss="11.19" rerouteNo="0" devices="vehroute_flow_5_increasing_0_S_straight.2 tripinfo_flow_5_increasing_0_S_straight.2" vType="moto" speedFactor="0.96" vaporized=""/>
    <tripinfo id="flow_1_increasing_0_N_straight.2" depart="140.00" departLane="S_in_1" departPos="39.28" departSpeed="1.11" departDelay="0.38" arrival="176.00" arrivalLane="E_out_0" arrivalPos="189.60" arrivalSpeed="11.67" duration="36.00" routeLength="348.95" waitingTime="0.00" waitingCount="0" stopTime="0.00" timeLoss="7.36" rerouteNo="0" devices="vehroute_flow_1_increasing_0_N_straight.2 tripinfo_flow_1_increasing_0_N_straight.2" vType="moto" speedFactor="0.93" vaporized=""/>
    <tripinfo id="flow_6_increasing_0_S_left.1" depart="166.00" departLane="S_in_1" departPos="97.23" departSpeed="5.84" departDelay="0.16" arrival="190.00" arrivalLane="W_out_1" arrivalPos="189.60" arrivalSpeed="13.83" duration="24.00" routeLength="301.32" waitingTime="0.00" waitingCount="0" stopTime="0.00" timeLoss="3.24" rerouteNo="0" devices="vehroute_flow_6_increasing_0_S_left.1 tripinfo_flow_6_increasing_0_S_left.1" vType="moto" speedFactor="1.08" vaporized=""/>
    <tripinfo id="flow_15_increasing_0_W_right.1" depart="164.00" departLane="W_in_0" departPos="80.24" departSpeed="9.78" departDelay="0.60" arrival="195.00" arrivalLane="S_out_0" arrivalPos="189.60" arrivalSpeed="13.96" duration="31.00" routeLength="307.99" waitingTime="2.00" waitingCount="1" stopTime="0.00" timeLoss="8.67" rerouteNo="0" devices="vehroute_flow_15_increasing_0_W_right.1 tripinfo_flow_15_increasing_0_W_right.1" vType="moto" speedFactor="1.04" vaporized=""/>
    <tripinfo id="flow_14_increasing_0_W_left.1" depart="166.00" departLane="W_in_1" departPos="79.10" departSpeed="8.50" departDelay="0.16" arrival="195.00" arrivalLane="N_out_1" arrivalPos="189.60" arrivalSpeed="14.25" duration="29.00" routeLength="319.45" waitingTime="0.00" waitingCount="0" stopTime="0.00" timeLoss="5.80" rerouteNo="0" devices="vehroute_flow_14_increasing_0_W_left.1 tripinfo_flow_14_increasing_0_W_left.1" vType="moto" speedFactor="1.05" vaporized=""/>
    <tripinfo id="flow_11_increasing_0_E_right.1" depart="170.00" departLane="E_in_0" departPos="166.00" departSpeed="1.28" departDelay="0.80" arrival="197.00" arrivalLane="N_out_0" arrivalPos="189.60" arrivalSpeed="11.83" duration="27.00" routeLength="222.23" waitingTime="1.00" waitingCount="1" stopTime="0.00" timeLoss="7.91" rerouteNo="0" devices="vehroute_flow_11_increasing_0_E_right.1 tripinfo_flow_11_increasing_0_E_right.1" vType="moto" speedFactor="0.88" vaporized=""/>
    <tripinfo id="flow_2_increasing_0_N_left.1" depart="163.00" departLane="N_in_0" departPos="15.17" departSpeed="0.73" departDelay="0.40" arrival="208.00" arrivalLane="E_out_1" arrivalPos="189.60" arrivalSpeed="15.03" duration="45.00" routeLength="383.38" waitingTime="10.00" waitingCount="1" stopTime="0.00" timeLoss="19.14" rerouteNo="0" devices="vehroute_flow_2_increasing_0_N_left.1 tripinfo_flow_2_increasing_0_N_left.1" vType="moto" speedFactor="1.12" vaporized=""/>
    <tripinfo id="flow_10_increasing_0_E_left.1" depart="170.00" departLane="N_in_0" departPos="4.52" departSpeed="10.46" departDelay="0.80" arrival="215.00" arrivalLane="S_out_0" arrivalPos="189.60" arrivalSpeed="10.52" duration="45.00" routeLength="395.48" waitingTime="1.00" waitingCount="1" stopTime="0.00" timeLoss="7.84" rerouteNo="0" devices="vehroute_flow_10_increasing_0_E_left.1 tripinfo_flow_10_increasing_0_E_left.1" vType="car" speedFactor="0.77" vaporized=""/>
    <tripinfo id="flow_7_increasing_0_S_right.1" depart="163.00" departLane="S_in_0" departPos="54.99" departSpeed="3.84" departDelay="0.40" arrival="218.00" arrivalLane="E_out_0" arrivalPos="189.60" arrivalSpeed="10.48" duration="55.00" routeLength="333.24" waitingTime="9.00" waitingCount="1" stopTime="0.00" timeLoss="23.02" rerouteNo="0" devices="vehroute_flow_7_increasing_0_S_right.1 tripinfo_flow_7_increasing_0_S_right.1" vType="container" speedFactor="0.78" vaporized=""/>
    <tripinfo id="flow_3_increasing_0_N_right.1" depart="174.00" departLane="N_in_0" departPos="93.41" departSpeed="11.76" departDelay="0.39" arrival="218.00" arrivalLane="W_out_0" arrivalPos="189.60" arrivalSpeed="12.60" duration="44.00" routeLength="294.82" waitingTime="6.00" waitingCount="1" stopTime="0.00" timeLoss="19.48" rerouteNo="0" devices="vehroute_flow_3_increasing_0_N_right.1 tripinfo_flow_3_increasing_0_N_right.1" vType="container" speedFactor="0.91" vaporized=""/>
    <tripinfo id="flow_9_increasing_0_E_straight.3" depart="193.00" departLane="W_in_0" departPos="86.42" departSpeed="8.41" departDelay="0.69" arrival="226.00" arrivalLane="W_out_0" arrivalPos="189.60" arrivalSpeed="11.58" duration="33.00" routeLength="297.45" waitingTime="0.00" waitingCount="0" stopTime="0.00" timeLoss="6.03" rerouteNo="0" devices="vehroute_flow_9_increasing_0_E_straight.3 tripinfo_flow_9_increasing_0_E_straight.3" vType="truck" speedFactor="0.85" vaporized=""/>
    <tripinfo id="flow_13_increasing_0_W_straight.3" depart="203.00" departLane="W_in_0" departPos="65.01" departSpeed="6.58" departDelay="0.98" arrival="226.00" arrivalLane="E_out_0" arrivalPos="189.60" arrivalSpeed="15.22" duration="23.00" routeLength="334.99" waitingTime="0.00" waitingCount="0" stopTime="0.00" timeLoss="2.04" rerouteNo="0" devices="vehroute_flow_13_increasing_0_W_straight.3 tripinfo_flow_13_increasing_0_W_straight.3" vType="moto" speedFactor="1.20" vaporized=""/>
    <tripinfo id="flow_5_increasing_0_S_straight.3" depart="200.00" departLane="S_in_0" departPos="184.19" departSpeed="8.58" departDelay="1.00" arrival="245.00" arrivalLane="N_out_0" arrivalPos="189.60" arrivalSpeed="13.99" duration="45.00" routeLength="215.81" waitingTime="24.00" waitingCount="1" stopTime="0.00" timeLoss="29.65" rerouteNo="0" devices="vehroute_flow_5_increasing_0_S_straight.3 tripinfo_flow_5_increasing_0_S_straight.3" vType="moto" speedFactor="1.08" vaporized=""/>
    <tripinfo id="flow_1_increasing_0_N_straight.3" depart="210.00" departLane="S_in_1" departPos="88.42" departSpeed="1.49" departDelay="0.58" arrival="246.00" arrivalLane="E_out_0" arrivalPos="189.60" arrivalSpeed="13.77" duration="36.00" routeLength="299.81" waitingTime="6.00" waitingCount="1" stopTime="0.00" timeLoss="14.28" rerouteNo="0" devices="vehroute_flow_1_increasing_0_N_straight.3 tripinfo_flow_1_increasing_0_N_straight.3" vType="moto" speedFactor="1.06" vaporized=""/>
    <tripinfo id="flow_9_increasing_0_E_straight.4" depart="257.00" departLane="W_in_1" departPos="53.32" departSpeed="10.34" departDelay="0.59" arrival="298.00" arrivalLane="W_out_1" arrivalPos="189.60" arrivalSpeed="12.93" duration="41.00" routeLength="330.55" waitingTime="5.00" waitingCount="1" stopTime="0.00" timeLoss="14.47" rerouteNo="0" devices="vehroute_flow_9_increasing_0_E_straight.4 tripinfo_flow_9_increasing_0_E_straight.4" vType="bus" speedFactor="0.95" vaporized=""/>
    <tripinfo id="flow_13_increasing_0_W_straight.4" depart="270.00" departLane="W_in_0" departPos="70.46" departSpeed="10.65" departDelay="0.64" arrival="299.00" arrivalLane="E_out_0" arrivalPos="189.60" arrivalSpeed="11.71" duration="29.00" routeLength="329.54" waitingTime="0.00" waitingCount="0" stopTime="0.00" timeLoss="0.95" rerouteNo="0" devices="vehroute_flow_13_increasing_0_W_straight.4 tripinfo_flow_13_increasing_0_W_straight.4" vType="truck" speedFactor="0.87" vaporized=""/>
    <tripinfo id="flow_17_increasing_300_N_straight.0" depart="300.00" departLane="N_in_1" departPos="160.30" departSpeed="12.75" departDelay="0.00" arrival="320.00" arrivalLane="S_out_1" arrivalPos="189.60" arrivalSpeed="12.58" duration="20.00" routeLength="239.70" waitingTime="0.00" waitingCount="0" stopTime="0.00" timeLoss="1.01" rerouteNo="0" devices="vehroute_flow_17_increasing_300_N_straight.0 tripinfo_flow_17_increasing_300_N_straight.0" vType="car" speedFactor="0.94" vaporized=""/>
    <tripinfo id="flow_22_increasing_300_S_left.0" depart="300.00" departLane="N_in_0" departPos="155.68" departSpeed="8.14" departDelay="0.00" arrival="323.00" arrivalLane="W_out_0" arrivalPos="189.60" arrivalSpeed="12.38" duration="23.00" routeLength="232.55" waitingTime="0.00" waitingCount="0" stopTime="0.00" timeLoss="3.38" rerouteNo="0" devices="vehroute_flow_22_increasing_300_S_left.0 tripinfo_flow_22_increasing_300_S_left.0" vType="moto" speedFactor="0.91" vaporized=""/>
    <tripinfo id="flow_24_increasing_300_S_uturn.0" depart="300.00" departLane="S_in_0" departPos="91.52" departSpeed="14.07" departDelay="0.00" arrival="324.00" arrivalLane="S_out_1" arrivalPos="189.60" arrivalSpeed="14.77" duration="24.00" routeLength="292.35" waitingTime="0.00" waitingCount="0" stopTime="0.00" timeLoss="4.28" rerouteNo="0" devices="vehroute_flow_24_increasing_300_S_uturn.0 tripinfo_flow_24_increasing_300_S_uturn.0" vType="moto" speedFactor="1.14" vaporized=""/>
    <tripinfo id="flow_25_increasing_300_E_straight.0" depart="300.00" departLane="N_in_1" departPos="151.29" departSpeed="2.42" departDelay="0.00" arrival="324.00" arrivalLane="W_out_0" arrivalPos="189.60" arrivalSpeed="13.15" duration="24.00" routeLength="236.94" waitingTime="0.00" waitingCount="0" stopTime="0.00" timeLoss="7.10" rerouteNo="0" devices="vehroute_flow_25_increasing_300_E_straight.0 tripinfo_flow_25_increasing_300_E_straight.0" vType="moto" speedFactor="1.04" vaporized=""/>
    <tripinfo id="flow_1_increasing_0_N_straight.4" depart="280.00" departLane="S_in_1" departPos="74.07" departSpeed="0.57" departDelay="0.77" arrival="325.00" arrivalLane="E_out_0" arrivalPos="189.60" arrivalSpeed="12.74" duration="45.00" routeLength="314.16" waitingTime="6.00" waitingCount="1" stopTime="0.00" timeLoss="20.53" rerouteNo="0" devices="vehroute_flow_1_increasing_0_N_straight.4 tripinfo_flow_1_increasing_0_N_straight.4" vType="car" speedFactor="0.96" vaporized=""/>
    <tripinfo id="flow_5_increasing_0_S_straight.4" depart="266.00" departLane="S_in_0" departPos="135.24" departSpeed="1.68" departDelay="0.66" arrival="326.00" arrivalLane="N_out_0" arrivalPos="189.60" arrivalSpeed="13.38" duration="60.00" routeLength="264.76" waitingTime="20.00" waitingCount="1" stopTime="0.00" timeLoss="39.73" rerouteNo="0" devices="vehroute_flow_5_increasing_0_S_straight.4 tripinfo_flow_5_increasing_0_S_straight.4" vType="container" speedFactor="0.97" vaporized=""/>
    <tripinfo id="flow_19_increasing_300_N_right.0" depart="300.00" departLane="N_in_1" departPos="111.69" departSpeed="5.48" departDelay="0.00" arrival="327.00" arrivalLane="W_out_0" arrivalPos="189.60" arrivalSpeed="12.52" duration="27.00" routeLength="276.54" waitingTime="0.00" waitingCount="0" stopTime="0.00" timeLoss="3.59" rerouteNo="0" devices="vehroute_flow_19_increasing_300_N_right.0 tripinfo_flow_19_increasing_300_N_right.0" vType="car" speedFactor="0.91" vaporized=""/>
    <tripinfo id="flow_18_increasing_300_N_left.0" depart="300.00" departLane="N_in_1" departPos="65.33" departSpeed="11.70" departDelay="0.00" arrival="329.00" arrivalLane="E_out_1" arrivalPos="189.60" arrivalSpeed="11.97" duration="29.00" routeLength="333.22" waitingTime="0.00" waitingCount="0" stopTime="0.00" timeLoss="2.25" rerouteNo="0" devices="vehroute_flow_18_increasing_300_N_left.0 tripinfo_flow_18_increasing_300_N_left.0" vType="moto" speedFactor="0.93" vaporized=""/>
    <tripinfo id="flow_27_increasing_300_E_right.0" depart="300.00" departLane="S_in_0" departPos="2.21" departSpeed="14.10" departDelay="0.00" arrival="329.00" arrivalLane="E_out_0" arrivalPos="189.60" arrivalSpeed="14.36" duration="29.00" routeLength="386.02" waitingTime="0.00" waitingCount="0" stopTime="0.00" timeLoss="2.79" rerouteNo="0" devices="vehroute_flow_27_increasing_300_E_right.0 tripinfo_flow_27_increasing_300_E_right.0" vType="moto" speedFactor="1.10" vaporized=""/>
    <tripinfo id="flow_23_increasing_300_S_right.0" depart="300.00" departLane="S_in_1" departPos="2.77" departSpeed="8.14" departDelay="0.00" arrival="331.00" arrivalLane="E_out_0" arrivalPos="189.60" arrivalSpeed="14.18" duration="31.00" routeLength="385.46" waitingTime="0.00" waitingCount="0" stopTime="0.00" timeLoss="4.00" rerouteNo="0" devices="vehroute_flow_23_increasing_300_S_right.0 tripinfo_flow_23_increasing_300_S_right.0" vType="moto" speedFactor="1.07" vaporized=""/>
    <tripinfo id="flow_21_increasing_300_S_straight.0" depart="300.00" departLane="S_in_1" departPos="19.51" departSpeed="8.19" departDelay="0.00" arrival="332.00" arrivalLane="S_out_1" arrivalPos="189.60" arrivalSpeed="13.72" duration="32.00" routeLength="364.36" waitingTime="0.00" waitingCount="0" stopTime="0.00" timeLoss="5.51" rerouteNo="0" devices="vehroute_flow_21_increasing_300_S_straight.0 tripinfo_flow_21_increasing_300_S_straight.0" vType="moto" speedFactor="1.03" vaporized=""/>
    <tripinfo id="flow_32_increasing_300_W_uturn.0" depart="300.00" departLane="N_in_1" departPos="29.07" departSpeed="2.81" departDelay="0.00" arrival="333.00" arrivalLane="E_out_1" arrivalPos="189.60" arrivalSpeed="13.41" duration="33.00" routeLength="369.48" waitingTime="0.00" waitingCount="0" stopTime="0.00" timeLoss="4.10" rerouteNo="0" devices="vehroute_flow_32_increasing_300_W_uturn.0 tripinfo_flow_32_increasing_300_W_uturn.0" vType="moto" speedFactor="0.98" vaporized=""/>
    <tripinfo id="flow_31_increasing_300_W_right.0" depart="300.00" departLane="W_in_0" departPos="159.96" departSpeed="10.58" departDelay="0.00" arrival="340.00" arrivalLane="S_out_0" arrivalPos="189.60" arrivalSpeed="13.45" duration="40.00" routeLength="228.27" waitingTime="17.00" waitingCount="1" stopTime="0.00" timeLoss="21.87" rerouteNo="0" devices="vehroute_flow_31_increasing_300_W_right.0 tripinfo_flow_31_increasing_300_W_right.0" vType="moto" speedFactor="0.97" vaporized=""/>
    <tripinfo id="flow_29_increasing_300_W_straight.0" depart="300.00" departLane="W_in_1" departPos="155.35" departSpeed="12.07" departDelay="0.00" arrival="341.00" arrivalLane="E_out_1" arrivalPos="189.60" arrivalSpeed="13.67" duration="41.00" routeLength="244.65" waitingTime="16.00" waitingCount="1" stopTime="0.00" timeLoss="22.91" rerouteNo="0" devices="vehroute_flow_29_increasing_300_W_straight.0 tripinfo_flow_29_increasing_300_W_straight.0" vType="moto" speedFactor="1.02" vaporized=""/>
    <tripinfo id="flow_30_increasing_300_W_left.0" depart="300.00" departLane="W_in_0" departPos="92.42" departSpeed="15.22" departDelay="0.00" arrival="341.00" arrivalLane="N_out_1" arrivalPos="189.60" arrivalSpeed="14.99" duration="41.00" routeLength="306.13" waitingTime="13.00" waitingCount="1" stopTime="0.00" timeLoss="19.89" rerouteNo="0" devices="vehroute_flow_30_increasing_300_W_left.0 tripinfo_flow_30_increasing_300_W_left.0" vType="moto" speedFactor="1.10" vaporized=""/>
    <tripinfo id="flow_28_increasing_300_E_uturn.0" depart="300.00" departLane="W_in_0" departPos="78.09" departSpeed="11.34" departDelay="0.00" arrival="344.00" arrivalLane="E_out_0" arrivalPos="189.60" arrivalSpeed="11.76" duration="44.00" routeLength="321.91" waitingTime="12.00" waitingCount="1" stopTime="0.00" timeLoss="17.50" rerouteNo="0" devices="vehroute_flow_28_increasing_300_E_uturn.0 tripinfo_flow_28_increasing_300_E_uturn.0" vType="car" speedFactor="0.90" vaporized=""/>
    <tripinfo id="flow_20_increasing_300_N_uturn.0" depart="300.00" departLane="E_in_1" departPos="129.09" departSpeed="4.66" departDelay="0.00" arrival="348.00" arrivalLane="S_out_1" arrivalPos="189.60" arrivalSpeed="11.83" duration="48.00" routeLength="269.46" waitingTime="16.00" waitingCount="2" stopTime="0.00" timeLoss="24.48" rerouteNo="0" devices="vehroute_flow_20_increasing_300_N_uturn.0 tripinfo_flow_20_increasing_300_N_uturn.0" vType="car" speedFactor="0.88" vaporized=""/>
    <tripinfo id="flow_26_increasing_300_E_left.0" depart="300.00" departLane="E_in_0" departPos="0.16" departSpeed="4.25" departDelay="0.00" arrival="350.00" arrivalLane="S_out_1" arrivalPos="189.60" arrivalSpeed="11.95" duration="50.00" routeLength="398.39" waitingTime="6.00" waitingCount="2" stopTime="0.00" timeLoss="16.72" rerouteNo="0" devices="vehroute_flow_26_increasing_300_E_left.0 tripinfo_flow_26_increasing_300_E_left.0" vType="moto" speedFactor="0.90" vaporized=""/>
    <tripinfo id="flow_25_increasing_300_E_straight.1" depart="347.00" departLane="N_in_1" departPos="137.11" departSpeed="4.53" departDelay="0.85" arrival="378.00" arrivalLane="W_out_0" arrivalPos="189.60" arrivalSpeed="12.88" duration="31.00" routeLength="251.12" waitingTime="5.00" waitingCount="1" stopTime="0.00" timeLoss="12.16" rerouteNo="0" devices="vehroute_flow_25_increasing_300_E_straight.1 tripinfo_flow_25_increasing_300_E_straight.1" vType="moto" speedFactor="1.01" vaporized=""/>
    <tripinfo id="flow_17_increasing_300_N_straight.1" depart="351.00" departLane="N_in_0" departPos="18.52" departSpeed="1.69" departDelay="0.74" arrival="381.00" arrivalLane="S_out_0" arrivalPos="189.60" arrivalSpeed="14.04" duration="30.00" routeLength="381.48" waitingTime="0.00" waitingCount="0" stopTime="0.00" timeLoss="3.44" rerouteNo="0" devices="vehroute_flow_17_increasing_300_N_straight.1 tripinfo_flow_17_increasing_300_N_straight.1" vType="moto" speedFactor="1.06" vaporized=""/>
    <tripinfo id="flow_21_increasing_300_S_straight.1" depart="350.00" departLane="S_in_1" departPos="152.01" departSpeed="4.61" departDelay="0.52" arrival="389.00" arrivalLane="S_out_0" arrivalPos="189.60" arrivalSpeed="12.45" duration="39.00" routeLength="231.86" waitingTime="3.00" waitingCount="2" stopTime="0.00" timeLoss="18.97" rerouteNo="0" devices="vehroute_flow_21_increasing_300_S_straight.1 tripinfo_flow_21_increasing_300_S_straight.1" vType="truck" speedFactor="0.90" vaporized=""/>