<?xml version="1.0" encoding="UTF-8"?>

<!-- generated on 2025-12-09 21:28:30 by Eclipse SUMO sumo Version 1.18.0
<configuration xmlns:xsi="http://www.w3.org/2001/XMLSchema-instance" xsi:noNamespaceSchemaLocation="http://sumo.dlr.de/xsd/sumoConfiguration.xsd">

    <input>
        <net-file value="nets/120p4k/net.net.xml"/>
        <route-files value="nets/120p4k/route_temp_288_128717304264496_34832144.rou.xml"/>
    </input>

    <output>
        <summary-output value="result_ddqn_0.9_0.3/summary_ep_5.xml"/>
        <tripinfo-output value="result_ddqn_0.9_0.3/tripinfo_ep_5.xml"/>
        <vehroute-output value="result_ddqn_0.9_0.3/vehroute_ep_5.xml"/>
    </output>

    <time>
        <begin value="0"/>
    </time>

    <report>
        <verbose value="true"/>
        <no-warnings value="true"/>
        <no-step-log value="true"/>
    </report>

    <traci_server>
        <remote-port value="33625"/>
    </traci_server>

    <gui_only>
        <gui-settings-file value="nets/120p4k/gui-settings.xml"/>
        <quit-on-end value="true"/>
    </gui_only>

</configuration>
-->

<routes xmlns:xsi="http://www.w3.org/2001/XMLSchema-instance" xsi:noNamespaceSchemaLocation="http://sumo.dlr.de/xsd/routes_file.xsd">
    <vehicle id="flow_3_increasing_0_N_right.0" type="moto" depart="0.00" departLane="0" departPos="103.3842" departSpeed="3.8146" speedFactor="1.1088" arrival="23.00">
        <route edges="N_in S_out"/>
    </vehicle>

    <vehicle id="flow_8_increasing_0_S_uturn.0" type="moto" depart="0.00" departLane="0" departPos="120.1072" departSpeed="4.4837" speedFactor="1.0505" arrival="26.00">
        <route edges="S_in S_out"/>
    </vehicle>

    <vehicle id="flow_6_increasing_0_S_left.0" type="moto" depart="0.00" departLane="1" departPos="166.0107" departSpeed="0.7376" speedFactor="0.8806" arrival="30.00">
        <route edges="S_in W_out"/>
    </vehicle>

    <vehicle id="flow_12_increasing_0_E_uturn.0" type="moto" depart="0.00" departLane="0" departPos="5.6544" departSpeed="13.7593" speedFactor="1.0348" arrival="31.00">
        <route edges="S_in W_out"/>
    </vehicle>

    <vehicle id="flow_14_increasing_0_W_left.0" type="moto" depart="0.00" departLane="1" departPos="42.3057" departSpeed="3.7077" speedFactor="1.0101" arrival="31.00">
        <route edges="N_in N_out"/>
    </vehicle>

    <vehicle id="flow_13_increasing_0_W_straight.0" type="bus" depart="0.00" departLane="0" departPos="77.991" departSpeed="3.9683" speedFactor="0.8617" arrival="34.00">
        <route edges="S_in E_out"/>
    </vehicle>

    <vehicle id="flow_16_increasing_0_W_uturn.0" type="moto" depart="0.00" departLane="1" departPos="135.6701" departSpeed="1.2848" speedFactor="1.0383" arrival="36.00">
        <route edges="E_in W_out"/>
    </vehicle>

    <vehicle id="flow_9_increasing_0_E_straight.0" type="car" depart="0.00" departLane="0" departPos="168.2937" departSpeed="10.7269" speedFactor="0.9362" arrival="37.00">
        <route edges="E_in W_out"/>
    </vehicle>

    <vehicle id="flow_5_increasing_0_S_straight.0" type="moto" depart="0.00" departLane="1" departPos="107.3659" departSpeed="7.2113" speedFactor="1.1475" arrival="38.00">
        <route edges="E_in E_out"/>
    </vehicle>

    <vehicle id="flow_11_increasing_0_E_right.0" type="bus" depart="0.00" departLane="1" departPos="144.9496" departSpeed="4.0187" speedFactor="0.9581" arrival="39.00">
        <route edges="W_in S_out"/>
    </vehicle>

    <vehicle id="flow_4_increasing_0_N_uturn.0" type="moto" depart="0.00" departLane="1" departPos="127.6015" departSpeed="0.0761" speedFactor="0.9074" arrival="40.00">
        <route edges="E_in W_out"/>
    </vehicle>

    <vehicle id="flow_10_increasing_0_E_left.0" type="car" depart="0.00" departLane="0" departPos="44.8816" departSpeed="8.1909" speedFactor="1.0826" arrival="40.00">
        <route edges="E_in S_out"/>
    </vehicle>

    <vehicle id="flow_15_increasing_0_W_right.0" type="moto" depart="0.00" departLane="1" departPos="45.7673" departSpeed="6.7313" speedFactor="0.8472" arrival="44.00">
        <route edges="W_in S_out"/>
    </vehicle>

    <vehicle id="flow_7_increasing_0_S_right.0" type="bus" depart="0.00" departLane="0" departPos="8.759" departSpeed="8.4712" speedFactor="0.8915" arrival="47.00">
        <route edges="W_in S_out"/>
    </vehicle>

    <vehicle id="flow_2_increasing_0_N_left.0" type="moto" depart="0.00" departLane="1" departPos="8.2688" departSpeed="8.3291" speedFactor="1.0157" arrival="49.00">
        <route edges="N_in N_out"/>
    </vehicle>

    <vehicle id="flow_1_increasing_0_N_straight.0" type="truck" depart="0.00" departLane="0" departPos="8.6229" departSpeed="8.5053" speedFactor="0.8588" arrival="55.00">
        <route edges="N_in S_out"/>
    </vehicle>

    <vehicle id="flow_9_increasing_0_E_straight.1" type="moto" depart="65.00" departLane="1" departPos="177.286" departSpeed="8.4065" speedFactor="1.1582" arrival="86.00">
        <route edges="E_in W_out"/>
    </vehicle>

    <vehicle id="flow_5_increasing_0_S_straight.1" type="moto" depart="67.00" departLane="0" departPos="93.3916" departSpeed="3.7336" speedFactor="0.8727" arrival="97.00">
        <route edges="E_in E_out"/>
    </vehicle>

    <vehicle id="flow_1_increasing_0_N_straight.1" type="moto" depart="70.00" departLane="1" departPos="28.7874" departSpeed="10.2227" speedFactor="1.1462" arrival="98.00">
        <route edges="N_in S_out"/>
    </vehicle>

    <vehicle id="flow_13_increasing_0_W_straight.1" type="moto" depart="68.00" departLane="1" departPos="181.05" departSpeed="2.6944" speedFactor="1.1853" arrival="99.00">
        <route edges="S_in E_out"/>
    </vehicle>

    <vehicle id="flow_13_increasing_0_W_straight.2" type="truck" depart="135.00" departLane="1" departPos="64.277" departSpeed="4.213" speedFactor="0.9657" arrival="167.00">
        <route edges="S_in E_out"/>
    </vehicle>

    <vehicle id="flow_1_increasing_0_N_straight.2" type="moto" depart="140.00" departLane="1" departPos="39.2795" departSpeed="7.315" speedFactor="0.9279" arrival="170.00">
        <route edges="N_in S_out"/>
    </vehicle>

    <vehicle id="flow_9_increasing_0_E_straight.2" type="moto" depart="129.00" departLane="1" departPos="103.6674" departSpeed="3.8519" speedFactor="0.9938" arrival="176.00">
        <route edges="E_in W_out"/>
    </vehicle>

    <vehicle id="flow_5_increasing_0_S_straight.2" type="moto" depart="133.00" departLane="0" departPos="33.9342" departSpeed="0.8958" speedFactor="0.9623" arrival="177.00">
        <route edges="E_in E_out"/>
    </vehicle>

    <vehicle id="flow_6_increasing_0_S_left.1" type="moto" depart="166.00" departLane="1" departPos="97.231" departSpeed="5.8444" speedFactor="1.0788" arrival="191.00">
        <route edges="S_in W_out"/>
    </vehicle>

    <vehicle id="flow_14_increasing_0_W_left.1" type="moto" depart="166.00" departLane="1" departPos="79.0964" departSpeed="8.5001" speedFactor="1.0453" arrival="193.00">
        <route edges="N_in N_out"/>
    </vehicle>

    <vehicle id="flow_15_increasing_0_W_right.1" type="moto" depart="164.00" departLane="0" departPos="80.2425" departSpeed="9.7779" speedFactor="1.0365" arrival="201.00">
        <route edges="W_in S_out"/>
    </vehicle>

    <vehicle id="flow_10_increasing_0_E_left.1" type="car" depart="170.00" departLane="0" departPos="4.5211" departSpeed="10.4631" speedFactor="0.7706" arrival="211.00">
        <route edges="E_in S_out"/>
    </vehicle>

    <vehicle id="flow_7_increasing_0_S_right.1" type="container" depart="163.00" departLane="0" departPos="54.9911" departSpeed="3.8367" speedFactor="0.7845" arrival="212.00">
        <route edges="W_in S_out"/>
    </vehicle>

    <vehicle id="flow_11_increasing_0_E_right.1" type="moto" depart="170.00" departLane="0" departPos="80.5996" departSpeed="1.2818" speedFactor="0.8806" arrival="214.00">
        <route edges="W_in S_out"/>
    </vehicle>

    <vehicle id="flow_13_increasing_0_W_straight.3" type="moto" depart="203.00" departLane="0" departPos="148.0778" departSpeed="10.5891" speedFactor="1.2027" arrival="222.00">
        <route edges="S_in E_out"/>
    </vehicle>

    <vehicle id="flow_2_increasing_0_N_left.1" type="moto" depart="163.00" departLane="0" departPos="15.1679" departSpeed="0.7311" speedFactor="1.1228" arrival="223.00">
        <route edges="N_in N_out"/>
    </vehicle>

    <vehicle id="flow_3_increasing_0_N_right.1" type="container" depart="174.00" departLane="1" departPos="108.7646" departSpeed="5.7943" speedFactor="0.9146" arrival="234.00">
        <route edges="N_in S_out"/>
    </vehicle>

    <vehicle id="flow_1_increasing_0_N_straight.3" type="moto" depart="210.00" departLane="1" departPos="23.5668" departSpeed="10.4691" speedFactor="1.0575" arrival="237.00">
        <route edges="N_in S_out"/>
    </vehicle>

    <vehicle id="flow_5_increasing_0_S_straight.3" type="moto" depart="200.00" departLane="0" departPos="19.2493" departSpeed="10.4656" speedFactor="1.0764" arrival="247.00">
        <route edges="E_in E_out"/>
    </vehicle>

    <vehicle id="flow_9_increasing_0_E_straight.3" type="truck" depart="193.00" departLane="1" departPos="77.9408" departSpeed="3.5072" speedFactor="0.8515" arrival="253.00">
        <route edges="E_in W_out"/>
    </vehicle>

    <vehicle id="flow_9_increasing_0_E_straight.4" type="bus" depart="257.00" departLane="0" departPos="167.2268" departSpeed="1.8689" speedFactor="0.9525" arrival="281.00">
        <route edges="E_in W_out"/>
    </vehicle>

    <vehicle id="flow_13_increasing_0_W_straight.4" type="truck" depart="270.00" departLane="0" departPos="185.4693" departSpeed="5.6578" speedFactor="0.8691" arrival="291.00">
        <route edges="S_in E_out"/>
    </vehicle>

    <vehicle id="flow_1_increasing_0_N_straight.4" type="car" depart="280.00" departLane="1" departPos="171.4793" departSpeed="2.0528" speedFactor="0.9617" arrival="300.00">
        <route edges="N_in S_out"/>
    </vehicle>

    <vehicle id="flow_5_increasing_0_S_straight.4" type="container" depart="266.00" departLane="0" departPos="8.0759" departSpeed="6.4761" speedFactor="0.9706" arrival="317.00">
        <route edges="E_in E_out"/>
    </vehicle>

    <vehicle id="flow_29_increasing_300_W_straight.0" type="moto" depart="300.00" departLane="1" departPos="148.6531" departSpeed="13.277" speedFactor="1.0203" arrival="319.00">
        <route edges="W_in E_out"/>
    </vehicle>

    <vehicle id="flow_27_increasing_300_E_right.0" type="moto" depart="300.00" departLane="0" departPos="161.4056" departSpeed="1.7551" speedFactor="1.1043" arrival="320.00">
        <route edges="E_in N_out"/>
    </vehicle>

    <vehicle id="flow_21_increasing_300_S_straight.0" type="moto" depart="300.00" departLane="0" departPos="104.1356" departSpeed="13.495" speedFactor="1.0276" arrival="323.00">
        <route edges="E_in W_out"/>
    </vehicle>

    <vehicle id="flow_19_increasing_300_N_right.0" type="car" depart="300.00" departLane="1" departPos="108.7048" departSpeed="7.5348" speedFactor="0.9146" arrival="325.00">
        <route edges="W_in E_out"/>
    </vehicle>

    <vehicle id="flow_25_increasing_300_E_straight.0" type="moto" depart="300.00" departLane="1" departPos="124.8757" departSpeed="0.0124" speedFactor="1.0390" arrival="327.00">
        <route edges="E_in W_out"/>
    </vehicle>

    <vehicle id="flow_28_increasing_300_E_uturn.0" type="car" depart="300.00" departLane="1" departPos="188.9833" departSpeed="0.6157" speedFactor="0.8975" arrival="329.00">
        <route edges="E_in E_out"/>
    </vehicle>

    <vehicle id="flow_30_increasing_300_W_left.0" type="moto" depart="300.00" departLane="0" departPos="63.1043" departSpeed="12.8798" speedFactor="1.0983" arrival="330.00">
        <route edges="W_in N_out"/>
    </vehicle>

    <vehicle id="flow_23_increasing_300_S_right.0" type="moto" depart="300.00" departLane="0" departPos="31.7588" departSpeed="13.3956" speedFactor="1.0668" arrival="332.00">
        <route edges="S_in E_out"/>
    </vehicle>

    <vehicle id="flow_17_increasing_300_N_straight.0" type="car" depart="300.00" departLane="0" departPos="81.6907" departSpeed="8.6446" speedFactor="0.9376" arrival="334.00">
        <route edges="N_in S_out"/>
    </vehicle>

    <vehicle id="flow_32_increasing_300_W_uturn.0" type="moto" depart="300.00" departLane="1" departPos="69.4902" departSpeed="8.3854" speedFactor="0.9756" arrival="336.00">
        <route edges="N_in S_out"/>
    </vehicle>

    <vehicle id="flow_20_increasing_300_N_uturn.0" type="car" depart="300.00" departLane="0" departPos="121.5569" departSpeed="10.5298" speedFactor="0.8844" arrival="337.00">
        <route edges="N_in N_out"/>
    </vehicle>

    <vehicle id="flow_31_increasing_300_W_right.0" type="moto" depart="300.00" departLane="1" departPos="84.6621" departSpeed="2.0699" speedFactor="0.9711" arrival="339.00">
        <route edges="N_in N_out"/>
    </vehicle>

    <vehicle id="flow_22_increasing_300_S_left.0" type="moto" depart="300.00" departLane="1" departPos="168.2148" departSpeed="11.6281" speedFactor="0.9135" arrival="340.00">
        <route edges="S_in W_out"/>
    </vehicle>

    <vehicle id="flow_18_increasing_300_N_left.0" type="moto" depart="300.00" departLane="0" departPos="71.9448" departSpeed="3.5864" speedFactor="0.9305" arrival="341.00">
        <route edges="N_in E_out"/>
    </vehicle>

    <vehicle id="flow_24_increasing_300_S_uturn.0" type="moto" depart="300.00" departLane="1" departPos="89.1662" departSpeed="12.6588" speedFactor="1.1413" arrival="345.00">
        <route edges="E_in W_out"/>
    </vehicle>

    <vehicle id="flow_26_increasing_300_E_left.0" type="moto" depart="300.00" departLane="1" departPos="172.3747" departSpeed="0.1463" speedFactor="0.9020" arrival="348.00">
        <route edges="E_in S_out"/>
    </vehicle>

    <vehicle id="flow_25_increasing_300_E_straight.1" type="moto" depart="347.00" departLane="1" departPos="109.8853" departSpeed="2.2095" speedFactor="1.0085" arrival="372.00">
        <route edges="E_in W_out"/>
    </vehicle>

    <vehicle id="flow_21_increasing_300_S_straight.1" type="truck" depart="350.00" departLane="1" departPos="21.7404" departSpeed="9.9208" speedFactor="0.9040" arrival="382.00">
        <route edges="E_in W_out"/>
    </vehicle>

    <vehicle id="flow_29_increasing_300_W_straight.1" type="moto" depart="350.00" departLane="0" departPos="43.1808" departSpeed="2.5138" speedFactor="0.8003" arrival="386.00">
        <route edges="W_in E_out"/>
    </vehicle>

    <vehicle id="flow_17_increasing_300_N_straight.1" type="moto" depart="351.00" departLane="0" departPos="60.8307" departSpeed="13.582" speedFactor="1.0626" arrival="395.00">
        <route edges="N_in S_out"/>
    </vehicle>

    <vehicle id="flow_25_increasing_300_E_straight.2" type="moto" depart="393.00" departLane="1" departPos="88.3207" departSpeed="12.6322" speedFactor="1.0682" arrival="415.00">
        <route edges="E_in W_out"/>
    </vehicle>

    <vehicle id="flow_17_increasing_300_N_straight.2" type="moto" depart="401.00" departLane="0" departPos="16.037" departSpeed="6.4531" speedFactor="1.1705" arrival="428.00">
        <route edges="N_in S_out"/>
    </vehicle>

    <vehicle id="flow_27_increasing_300_E_right.1" type="moto" depart="415.00" departLane="1" departPos="142.1182" departSpeed="0.5375" speedFactor="1.1166" arrival="444.00">
        <route edges="E_in N_out"/>
    </vehicle>

    <vehicle id="flow_29_increasing_300_W_straight.2" type="moto" depart="400.00" departLane="1" departPos="107.805" departSpeed="11.3287" speedFactor="0.8878" arrival="446.00">
        <route edges="W_in E_out"/>
    </vehicle>

    <vehicle id="flow_21_increasing_300_S_straight.2" type="moto" depart="399.00" departLane="0" departPos="178.3578" departSpeed="2.7606" speedFactor="0.8330" arrival="447.00">
        <route edges="E_in W_out"/>
    </vehicle>

    <vehicle id="flow_30_increasing_300_W_left.1" type="moto" depart="427.00" departLane="0" departPos="178.6166" departSpeed="7.3804" speedFactor="0.9730" arrival="447.00">
        <route edges="W_in N_out"/>
    </vehicle>

    <vehicle id="flow_26_increasing_300_E_left.1" type="moto" depart="425.00" departLane="1" departPos="109.812" departSpeed="0.1687" speedFactor="1.0413" arrival="452.00">
        <route edges="E_in S_out"/>
    </vehicle>

    <vehicle id="flow_23_increasing_300_S_right.1" type="moto" depart="422.00" departLane="0" departPos="36.1365" departSpeed="9.1367" speedFactor="1.0873" arrival="456.00">
        <route edges="S_in E_out"/>
    </vehicle>

    <vehicle id="flow_31_increasing_300_W_right.1" type="car" depart="418.00" departLane="1" departPos="22.6438" departSpeed="10.5912" speedFactor="1.1439" arrival="458.00">
        <route edges="N_in N_out"/>
    </vehicle>

    <vehicle id="flow_18_increasing_300_N_left.1" type="moto" depart="420.00" departLane="1" departPos="111.5719" departSpeed="0.098" speedFactor="0.9618" arrival="458.00">
        <route edges="N_in E_out"/>
    </vehicle>

    <vehicle id="flow_22_increasing_300_S_left.1" type="moto" depart="420.00" departLane="0" departPos="150.3232" departSpeed="5.613" speedFactor="0.9385" arrival="458.00">
        <route edges="S_in W_out"/>
    </vehicle>

    <vehicle id="flow_25_increasing_300_E_straight.3" type="car" depart="439.00" departLane="0" departPos="173.6034" departSpeed="3.2846" speedFactor="1.0648" arrival="470.00">
        <route edges="E_in W_out"/>
    </vehicle>

    <vehicle id="flow_21_increasing_300_S_straight.3" type="moto" depart="449.00" departLane="0" departPos="65.7387" departSpeed="3.0079" speedFactor="1.2976" arrival="474.00">
        <route edges="E_in W_out"/>
    </vehicle>

    <vehicle id="flow_19_increasing_300_N_right.1" type="container" depart="424.00" departLane="1" departPos="20.793" departSpeed="5.2261" speedFactor="0.9532" arrival="477.00">
        <route edges="W_in E_out"/>
    </vehicle>

    <vehicle id="flow_17_increasing_300_N_straight.3" type="car" depart="451.00" departLane="1" departPos="58.7528" departSpeed="11.7563" speedFactor="1.0212" arrival="483.00">
        <route edges="N_in S_out"/>
    </vehicle>

    <vehicle id="flow_29_increasing_300_W_straight.3" type="moto" depart="450.00" departLane="1" departPos="57.3268" departSpeed="5.2131" speedFactor="0.8391" arrival="499.00">
        <route edges="W_in E_out"/>
    </vehicle>

    <vehicle id="flow_25_increasing_300_E_straight.4" type="moto" depart="485.00" departLane="0" departPos="2.521" departSpeed="5.6688" speedFactor="1.1157" arrival="531.00">
        <route edges="E_in W_out"/>
    </vehicle>

    <vehicle id="flow_21_increasing_300_S_straight.4" type="moto" depart="498.00" departLane="1" departPos="9.2851" departSpeed="7.7156" speedFactor="0.9645" arrival="531.00">
        <route edges="E_in W_out"/>
    </vehicle>

    <vehicle id="flow_29_increasing_300_W_straight.4" type="bus" depart="499.00" departLane="0" departPos="174.1059" departSpeed="0.4781" speedFactor="1.0917" arrival="536.00">
        <route edges="W_in E_out"/>
    </vehicle>

    <vehicle id="flow_17_increasing_300_N_straight.4" type="moto" depart="502.00" departLane="1" departPos="53.9882" departSpeed="5.4867" speedFactor="1.1571" arrival="544.00">
        <route edges="N_in S_out"/>
    </vehicle>

    <vehicle id="flow_27_increasing_300_E_right.2" type="moto" depart="530.00" departLane="1" departPos="103.2677" departSpeed="10.9366" speedFactor="0.9897" arrival="557.00">
        <route edges="E_in N_out"/>
    </vehicle>

    <vehicle id="flow_24_increasing_300_S_uturn.1" type="moto" depart="540.00" departLane="0" departPos="174.2328" departSpeed="5.668" speedFactor="1.1421" arrival="557.00">
        <route edges="E_in W_out"/>
    </vehicle>

    <vehicle id="flow_25_increasing_300_E_straight.5" type="truck" depart="531.00" departLane="1" departPos="90.2975" departSpeed="6.5637" speedFactor="0.9315" arrival="558.00">
        <route edges="E_in W_out"/>
    </vehicle>

    <vehicle id="flow_32_increasing_300_W_uturn.1" type="car" depart="536.00" departLane="1" departPos="168.3233" departSpeed="4.8984" speedFactor="1.0323" arrival="571.00">
        <route edges="N_in S_out"/>
    </vehicle>

    <vehicle id="flow_17_increasing_300_N_straight.5" type="moto" depart="552.00" departLane="0" departPos="180.9021" departSpeed="2.1959" speedFactor="1.0140" arrival="573.00">
        <route edges="N_in S_out"/>
    </vehicle>

    <vehicle id="flow_31_increasing_300_W_right.2" type="truck" depart="535.00" departLane="1" departPos="90.8186" departSpeed="9.9995" speedFactor="0.9032" arrival="574.00">
        <route edges="N_in N_out"/>
    </vehicle>

    <vehicle id="flow_23_increasing_300_S_right.2" type="truck" depart="543.00" departLane="0" departPos="151.3306" departSpeed="10.6234" speedFactor="1.0325" arrival="574.00">
        <route edges="S_in E_out"/>
    </vehicle>

    <vehicle id="flow_18_increasing_300_N_left.2" type="moto" depart="539.00" departLane="0" departPos="124.2821" departSpeed="12.9018" speedFactor="1.0387" arrival="575.00">
        <route edges="N_in E_out"/>
    </vehicle>

    <vehicle id="flow_20_increasing_300_N_uturn.1" type="moto" depart="538.00" departLane="1" departPos="40.9491" departSpeed="2.1948" speedFactor="1.0281" arrival="577.00">
        <route edges="N_in N_out"/>
    </vehicle>

    <vehicle id="flow_22_increasing_300_S_left.2" type="moto" depart="540.00" departLane="0" departPos="140.1793" departSpeed="12.7935" speedFactor="1.0039" arrival="577.00">
        <route edges="S_in W_out"/>
    </vehicle>

    <vehicle id="flow_19_increasing_300_N_right.2" type="moto" depart="547.00" departLane="0" departPos="88.8236" departSpeed="8.323" speedFactor="1.0387" arrival="584.00">
        <route edges="W_in E_out"/>
    </vehicle>

    <vehicle id="flow_29_increasing_300_W_straight.5" type="truck" depart="549.00" departLane="0" departPos="77.131" departSpeed="6.8855" speedFactor="0.9784" arrival="588.00">
        <route edges="W_in E_out"/>
    </vehicle>

    <vehicle id="flow_21_increasing_300_S_straight.5" type="truck" depart="548.00" departLane="1" departPos="100.3851" departSpeed="2.0929" speedFactor="0.8196" arrival="590.00">
        <route edges="E_in W_out"/>
    </vehicle>

    <vehicle id="flow_30_increasing_300_W_left.2" type="car" depart="553.00" departLane="0" departPos="62.1003" departSpeed="7.5695" speedFactor="0.9547" arrival="591.00">
        <route edges="W_in N_out"/>
    </vehicle>

    <vehicle id="flow_26_increasing_300_E_left.2" type="moto" depart="549.00" departLane="1" departPos="45.6162" departSpeed="9.4393" speedFactor="1.0448" arrival="592.00">
        <route edges="E_in S_out"/>
    </vehicle>

    <vehicle id="flow_28_increasing_300_E_uturn.1" type="moto" depart="538.00" departLane="0" departPos="45.7887" departSpeed="7.8251" speedFactor="0.8620" arrival="594.00">
        <route edges="E_in E_out"/>
    </vehicle>

    <vehicle id="flow_47_increasing_600_W_right.0" type="moto" depart="600.00" departLane="0" departPos="184.0677" departSpeed="5.0157" speedFactor="1.1530" arrival="616.00">
        <route edges="W_in S_out"/>
    </vehicle>

    <vehicle id="flow_37_increasing_600_S_straight.0" type="car" depart="600.00" departLane="0" departPos="169.1917" departSpeed="9.5021" speedFactor="0.9778" arrival="619.00">
        <route edges="E_in W_out"/>
    </vehicle>

    <vehicle id="flow_45_increasing_600_W_straight.0" type="moto" depart="600.00" departLane="1" departPos="161.9597" departSpeed="4.8199" speedFactor="0.9662" arrival="620.00">
        <route edges="W_in E_out"/>
    </vehicle>

    <vehicle id="flow_25_increasing_300_E_straight.6" type="moto" depart="577.00" departLane="1" departPos="149.7816" departSpeed="12.6738" speedFactor="1.0047" arrival="621.00">
        <route edges="E_in W_out"/>
    </vehicle>

    <vehicle id="flow_29_increasing_300_W_straight.6" type="moto" depart="599.00" departLane="0" departPos="60.9644" departSpeed="14.0707" speedFactor="1.1365" arrival="622.00">
        <route edges="W_in E_out"/>
    </vehicle>

    <vehicle id="flow_21_increasing_300_S_straight.6" type="moto" depart="597.00" departLane="1" departPos="81.1005" departSpeed="0.244" speedFactor="1.0699" arrival="624.00">
        <route edges="E_in W_out"/>
    </vehicle>

    <vehicle id="flow_36_increasing_600_N_uturn.0" type="moto" depart="600.00" departLane="1" departPos="102.4537" departSpeed="0.6456" speedFactor="1.0775" arrival="633.00">
        <route edges="N_in N_out"/>
    </vehicle>

    <vehicle id="flow_34_increasing_600_N_left.0" type="moto" depart="600.00" departLane="1" departPos="162.1669" departSpeed="13.1342" speedFactor="0.9556" arrival="634.00">
        <route edges="N_in E_out"/>
    </vehicle>

    <vehicle id="flow_33_increasing_600_N_straight.0" type="moto" depart="600.00" departLane="1" departPos="66.1547" departSpeed="10.4818" speedFactor="0.8847" arrival="635.00">
        <route edges="N_in S_out"/>
    </vehicle>

    <vehicle id="flow_35_increasing_600_N_right.0" type="car" depart="600.00" departLane="1" departPos="11.9624" departSpeed="0.7422" speedFactor="0.9394" arrival="636.00">
        <route edges="N_in W_out"/>
    </vehicle>

    <vehicle id="flow_38_increasing_600_S_left.0" type="truck" depart="600.00" departLane="1" departPos="170.5857" departSpeed="9.2533" speedFactor="1.0932" arrival="639.00">
        <route edges="S_in W_out"/>
    </vehicle>

    <vehicle id="flow_48_increasing_600_W_uturn.0" type="moto" depart="600.00" departLane="0" departPos="187.7648" departSpeed="1.8342" speedFactor="0.9806" arrival="642.00">
        <route edges="S_in W_out"/>
    </vehicle>

    <vehicle id="flow_39_increasing_600_S_right.0" type="bus" depart="600.00" departLane="0" departPos="128.7404" departSpeed="3.4704" speedFactor="0.9554" arrival="643.00">
        <route edges="S_in E_out"/>
    </vehicle>

    <vehicle id="flow_44_increasing_600_E_uturn.0" type="moto" depart="600.00" departLane="0" departPos="22.6696" departSpeed="6.9952" speedFactor="1.1523" arrival="644.00">
        <route edges="E_in E_out"/>
    </vehicle>

    <vehicle id="flow_40_increasing_600_S_uturn.0" type="moto" depart="600.00" departLane="0" departPos="28.3376" departSpeed="10.1117" speedFactor="0.8917" arrival="648.00">
        <route edges="E_in W_out"/>
    </vehicle>

    <vehicle id="flow_41_increasing_600_E_straight.0" type="car" depart="600.00" departLane="1" departPos="21.3277" departSpeed="7.0941" speedFactor="0.9957" arrival="649.00">
        <route edges="E_in W_out"/>
    </vehicle>

    <vehicle id="flow_42_increasing_600_E_left.0" type="moto" depart="600.00" departLane="1" departPos="38.4375" departSpeed="0.9758" speedFactor="0.8543" arrival="650.00">
        <route edges="E_in S_out"/>
    </vehicle>

    <vehicle id="flow_43_increasing_600_E_right.0" type="moto" depart="600.00" departLane="0" departPos="11.4261" departSpeed="4.5005" speedFactor="0.7657" arrival="652.00">
        <route edges="E_in N_out"/>
    </vehicle>

    <vehicle id="flow_46_increasing_600_W_left.0" type="truck" depart="600.00" departLane="0" departPos="44.9537" departSpeed="5.2658" speedFactor="0.8815" arrival="658.00">
        <route edges="W_in N_out"/>
    </vehicle>

    <vehicle id="flow_33_increasing_600_N_straight.1" type="moto" depart="637.00" departLane="0" departPos="116.7981" departSpeed="6.0517" speedFactor="0.8416" arrival="663.00">
        <route edges="N_in S_out"/>
    </vehicle>

    <vehicle id="flow_41_increasing_600_E_straight.1" type="moto" depart="637.00" departLane="1" departPos="160.2411" departSpeed="4.1197" speedFactor="1.0747" arrival="682.00">
        <route edges="E_in W_out"/>
    </vehicle>

    <vehicle id="flow_45_increasing_600_W_straight.1" type="moto" depart="637.00" departLane="1" departPos="22.618" departSpeed="7.5064" speedFactor="0.9471" arrival="683.00">
        <route edges="W_in E_out"/>
    </vehicle>

    <vehicle id="flow_37_increasing_600_S_straight.1" type="moto" depart="637.00" departLane="1" departPos="165.1863" departSpeed="6.5755" speedFactor="0.8756" arrival="684.00">
        <route edges="E_in W_out"/>
    </vehicle>

    <vehicle id="flow_33_increasing_600_N_straight.2" type="bus" depart="674.00" departLane="0" departPos="184.144" departSpeed="0.7449" speedFactor="1.0217" arrival="697.00">
        <route edges="N_in S_out"/>
    </vehicle>

    <vehicle id="flow_45_increasing_600_W_straight.2" type="truck" depart="674.00" departLane="0" departPos="39.6761" departSpeed="7.4709" speedFactor="1.0167" arrival="722.00">
        <route edges="W_in E_out"/>
    </vehicle>

    <vehicle id="flow_37_increasing_600_S_straight.2" type="truck" depart="673.00" departLane="0" departPos="7.5649" departSpeed="10.9479" speedFactor="0.9700" arrival="723.00">
        <route edges="E_in W_out"/>
    </vehicle>

    <vehicle id="flow_41_increasing_600_E_straight.2" type="bus" depart="674.00" departLane="1" departPos="127.7831" departSpeed="8.3845" speedFactor="0.9363" arrival="724.00">
        <route edges="E_in W_out"/>
    </vehicle>

    <vehicle id="flow_47_increasing_600_W_right.1" type="moto" depart="695.00" departLane="0" departPos="175.8273" departSpeed="1.4892" speedFactor="0.8950" arrival="724.00">
        <route edges="W_in S_out"/>
    </vehicle>

    <vehicle id="flow_43_increasing_600_E_right.1" type="moto" depart="692.00" departLane="1" departPos="80.6527" departSpeed="1.9144" speedFactor="0.9174" arrival="725.00">
        <route edges="E_in N_out"/>
    </vehicle>

    <vehicle id="flow_42_increasing_600_E_left.1" type="car" depart="693.00" departLane="0" departPos="15.6422" departSpeed="12.9868" speedFactor="0.9418" arrival="726.00">
        <route edges="E_in S_out"/>
    </vehicle>

    <vehicle id="flow_46_increasing_600_W_left.1" type="car" depart="699.00" departLane="1" departPos="163.2859" departSpeed="1.4729" speedFactor="0.9712" arrival="727.00">
        <route edges="W_in N_out"/>
    </vehicle>
