<?xml version="1.0" encoding="UTF-8"?>

<!-- generated on 2025-12-09 21:29:14 by Eclipse SUMO sumo Version 1.18.0
<configuration xmlns:xsi="http://www.w3.org/2001/XMLSchema-instance" xsi:noNamespaceSchemaLocation="http://sumo.dlr.de/xsd/sumoConfiguration.xsd">

    <input>
        <net-file value="nets/120p4k/net.net.xml"/>
        <route-files value="nets/120p4k/route_temp_288_128717304264496_34832144.rou.xml"/>
    </input>

    <output>
        <summary-output value="result_ddqn_0.9_0.3/summary_ep_6.xml"/>
        <tripinfo-output value="result_ddqn_0.9_0.3/tripinfo_ep_6.xml"/>
        <vehroute-output value="result_ddqn_0.9_0.3/vehroute_ep_6.xml"/>
    </output>

    <time>
        <begin value="0"/>
    </time>

    <report>
        <verbose value="true"/>
        <no-warnings value="true"/>
        <no-step-log value="true"/>
    </report>

    <traci_server>
        <remote-port value="40567"/>
    </traci_server>

    <gui_only>
        <gui-settings-file value="nets/120p4k/gui-settings.xml"/>
        <quit-on-end value="true"/>
    </gui_only>

</configuration>
-->

<routes xmlns:xsi="http://www.w3.org/2001/XMLSchema-instance" xsi:noNamespaceSchemaLocation="http://sumo.dlr.de/xsd/routes_file.xsd">
    <vehicle id="flow_5_increasing_0_S_straight.0" type="moto" depart="0.00" departLane="1" departPos="107.3659" departSpeed="7.2113" speedFactor="1.1475" arrival="21.00">
        <route edges="S_in N_out"/>
    </vehicle>

    <vehicle id="flow_3_increasing_0_N_right.0" type="moto" depart="0.00" departLane="0" departPos="103.3842" departSpeed="3.8146" speedFactor="1.1088" arrival="24.00">
        <route edges="N_in W_out"/>
    </vehicle>

    <vehicle id="flow_6_increasing_0_S_left.0" type="moto" depart="0.00" departLane="1" departPos="166.0107" departSpeed="0.7376" speedFactor="0.8806" arrival="25.00">
        <route edges="S_in W_out"/>
    </vehicle>

    <vehicle id="flow_4_increasing_0_N_uturn.0" type="moto" depart="0.00" departLane="1" departPos="127.6015" departSpeed="0.0761" speedFactor="0.9074" arrival="29.00">
        <route edges="N_in N_out"/>
    </vehicle>

    <vehicle id="flow_7_increasing_0_S_right.0" type="bus" depart="0.00" departLane="0" departPos="97.2584" departSpeed="8.4712" speedFactor="0.8915" arrival="29.00">
        <route edges="S_in E_out"/>
    </vehicle>

    <vehicle id="flow_10_increasing_0_E_left.0" type="car" depart="0.00" departLane="0" departPos="6.1463" departSpeed="3.5622" speedFactor="1.0826" arrival="29.00">
        <route edges="N_in S_out"/>
    </vehicle>

    <vehicle id="flow_2_increasing_0_N_left.0" type="moto" depart="0.00" departLane="1" departPos="8.2688" departSpeed="8.3291" speedFactor="1.0157" arrival="31.00">
        <route edges="N_in E_out"/>
    </vehicle>

    <vehicle id="flow_16_increasing_0_W_uturn.0" type="moto" depart="0.00" departLane="0" departPos="126.6766" departSpeed="11.7148" speedFactor="1.0383" arrival="35.00">
        <route edges="W_in W_out"/>
    </vehicle>

    <vehicle id="flow_9_increasing_0_E_straight.0" type="car" depart="0.00" departLane="1" departPos="75.1912" departSpeed="11.5508" speedFactor="0.9362" arrival="39.00">
        <route edges="W_in W_out"/>
    </vehicle>

    <vehicle id="flow_15_increasing_0_W_right.0" type="moto" depart="0.00" departLane="1" departPos="108.377" departSpeed="1.9778" speedFactor="0.8472" arrival="39.00">
        <route edges="W_in S_out"/>
    </vehicle>

    <vehicle id="flow_11_increasing_0_E_right.0" type="bus" depart="0.00" departLane="1" departPos="30.1666" departSpeed="10.1813" speedFactor="0.9581" arrival="40.00">
        <route edges="E_in N_out"/>
    </vehicle>

    <vehicle id="flow_12_increasing_0_E_uturn.0" type="moto" depart="0.00" departLane="1" departPos="129.8894" departSpeed="0.429" speedFactor="1.0348" arrival="40.00">
        <route edges="E_in E_out"/>
    </vehicle>

    <vehicle id="flow_13_increasing_0_W_straight.0" type="bus" depart="0.00" departLane="0" departPos="23.7725" departSpeed="1.5496" speedFactor="0.8617" arrival="41.00">
        <route edges="W_in E_out"/>
    </vehicle>

    <vehicle id="flow_14_increasing_0_W_left.0" type="moto" depart="0.00" departLane="1" departPos="50.0682" departSpeed="13.5426" speedFactor="1.0101" arrival="41.00">
        <route edges="W_in N_out"/>
    </vehicle>

    <vehicle id="flow_8_increasing_0_S_uturn.0" type="moto" depart="0.00" departLane="0" departPos="178.0418" departSpeed="8.0286" speedFactor="1.0505" arrival="42.00">
        <route edges="E_in S_out"/>
    </vehicle>

    <vehicle id="flow_1_increasing_0_N_straight.0" type="truck" depart="0.00" departLane="0" departPos="8.6229" departSpeed="8.5053" speedFactor="0.8588" arrival="55.00">
        <route edges="S_in E_out"/>
    </vehicle>

    <vehicle id="flow_1_increasing_0_N_straight.1" type="moto" depart="70.00" departLane="1" departPos="121.6549" departSpeed="2.9213" speedFactor="1.1462" arrival="92.00">
        <route edges="S_in E_out"/>
    </vehicle>

    <vehicle id="flow_9_increasing_0_E_straight.1" type="moto" depart="65.00" departLane="0" departPos="131.129" departSpeed="9.5396" speedFactor="1.1582" arrival="96.00">
        <route edges="W_in W_out"/>
    </vehicle>

    <vehicle id="flow_13_increasing_0_W_straight.1" type="moto" depart="68.00" departLane="1" departPos="31.9285" departSpeed="9.2811" speedFactor="1.1853" arrival="97.00">
        <route edges="W_in E_out"/>
    </vehicle>

    <vehicle id="flow_5_increasing_0_S_straight.1" type="moto" depart="67.00" departLane="1" departPos="58.3562" departSpeed="11.6446" speedFactor="0.8727" arrival="113.00">
        <route edges="S_in N_out"/>
    </vehicle>

    <vehicle id="flow_9_increasing_0_E_straight.2" type="moto" depart="129.00" departLane="1" departPos="52.8684" departSpeed="0.3845" speedFactor="0.9938" arrival="161.00">
        <route edges="W_in W_out"/>
    </vehicle>

    <vehicle id="flow_13_increasing_0_W_straight.2" type="truck" depart="135.00" departLane="1" departPos="59.5081" departSpeed="13.3195" speedFactor="0.9657" arrival="163.00">
        <route edges="W_in E_out"/>
    </vehicle>

    <vehicle id="flow_5_increasing_0_S_straight.2" type="moto" depart="133.00" departLane="1" departPos="12.6982" departSpeed="12.4143" speedFactor="0.9623" arrival="174.00">
        <route edges="S_in N_out"/>
    </vehicle>

    <vehicle id="flow_1_increasing_0_N_straight.2" type="moto" depart="140.00" departLane="1" departPos="39.2795" departSpeed="1.1094" speedFactor="0.9279" arrival="176.00">
        <route edges="S_in E_out"/>
    </vehicle>

    <vehicle id="flow_6_increasing_0_S_left.1" type="moto" depart="166.00" departLane="1" departPos="97.231" departSpeed="5.8444" speedFactor="1.0788" arrival="190.00">
        <route edges="S_in W_out"/>
    </vehicle>

    <vehicle id="flow_15_increasing_0_W_right.1" type="moto" depart="164.00" departLane="0" departPos="80.2425" departSpeed="9.7779" speedFactor="1.0365" arrival="195.00">
        <route edges="W_in S_out"/>
    </vehicle>

    <vehicle id="flow_14_increasing_0_W_left.1" type="moto" depart="166.00" departLane="1" departPos="79.0964" departSpeed="8.5001" speedFactor="1.0453" arrival="195.00">
        <route edges="W_in N_out"/>
    </vehicle>

    <vehicle id="flow_11_increasing_0_E_right.1" type="moto" depart="170.00" departLane="0" departPos="166.0021" departSpeed="1.2818" speedFactor="0.8806" arrival="197.00">
        <route edges="E_in N_out"/>
    </vehicle>

    <vehicle id="flow_2_increasing_0_N_left.1" type="moto" depart="163.00" departLane="0" departPos="15.1679" departSpeed="0.7311" speedFactor="1.1228" arrival="208.00">
        <route edges="N_in E_out"/>
    </vehicle>

    <vehicle id="flow_10_increasing_0_E_left.1" type="car" depart="170.00" departLane="0" departPos="4.5211" departSpeed="10.4631" speedFactor="0.7706" arrival="215.00">
        <route edges="N_in S_out"/>
    </vehicle>

    <vehicle id="flow_7_increasing_0_S_right.1" type="container" depart="163.00" departLane="0" departPos="54.9911" departSpeed="3.8367" speedFactor="0.7845" arrival="218.00">
        <route edges="S_in E_out"/>
    </vehicle>

    <vehicle id="flow_3_increasing_0_N_right.1" type="container" depart="174.00" departLane="0" departPos="93.4122" departSpeed="11.7583" speedFactor="0.9146" arrival="218.00">
        <route edges="N_in W_out"/>
    </vehicle>

    <vehicle id="flow_9_increasing_0_E_straight.3" type="truck" depart="193.00" departLane="0" departPos="86.4153" departSpeed="8.4123" speedFactor="0.8515" arrival="226.00">
        <route edges="W_in W_out"/>
    </vehicle>

    <vehicle id="flow_13_increasing_0_W_straight.3" type="moto" depart="203.00" departLane="0" departPos="65.0085" departSpeed="6.5773" speedFactor="1.2027" arrival="226.00">
        <route edges="W_in E_out"/>
    </vehicle>

    <vehicle id="flow_5_increasing_0_S_straight.3" type="moto" depart="200.00" departLane="0" departPos="184.1938" departSpeed="8.583" speedFactor="1.0764" arrival="245.00">
        <route edges="S_in N_out"/>
    </vehicle>

    <vehicle id="flow_1_increasing_0_N_straight.3" type="moto" depart="210.00" departLane="1" departPos="88.4153" departSpeed="1.4924" speedFactor="1.0575" arrival="246.00">
        <route edges="S_in E_out"/>
    </vehicle>

    <vehicle id="flow_9_increasing_0_E_straight.4" type="bus" depart="257.00" departLane="1" departPos="53.3168" departSpeed="10.3403" speedFactor="0.9525" arrival="298.00">
        <route edges="W_in W_out"/>
    </vehicle>

    <vehicle id="flow_13_increasing_0_W_straight.4" type="truck" depart="270.00" departLane="0" departPos="70.4575" departSpeed="10.655" speedFactor="0.8691" arrival="299.00">
        <route edges="W_in E_out"/>
    </vehicle>

    <vehicle id="flow_17_increasing_300_N_straight.0" type="car" depart="300.00" departLane="1" departPos="160.3044" departSpeed="12.7487" speedFactor="0.9376" arrival="320.00">
        <route edges="N_in S_out"/>
    </vehicle>

    <vehicle id="flow_22_increasing_300_S_left.0" type="moto" depart="300.00" departLane="0" departPos="155.6805" departSpeed="8.1408" speedFactor="0.9135" arrival="323.00">
        <route edges="N_in W_out"/>
    </vehicle>

    <vehicle id="flow_24_increasing_300_S_uturn.0" type="moto" depart="300.00" departLane="0" departPos="91.5182" departSpeed="14.0747" speedFactor="1.1413" arrival="324.00">
        <route edges="S_in S_out"/>
    </vehicle>

    <vehicle id="flow_25_increasing_300_E_straight.0" type="moto" depart="300.00" departLane="1" departPos="151.2924" departSpeed="2.4191" speedFactor="1.0390" arrival="324.00">
        <route edges="N_in W_out"/>
    </vehicle>

    <vehicle id="flow_1_increasing_0_N_straight.4" type="car" depart="280.00" departLane="1" departPos="74.0695" departSpeed="0.5694" speedFactor="0.9617" arrival="325.00">
        <route edges="S_in E_out"/>
    </vehicle>

    <vehicle id="flow_5_increasing_0_S_straight.4" type="container" depart="266.00" departLane="0" departPos="135.2371" departSpeed="1.6769" speedFactor="0.9706" arrival="326.00">
        <route edges="S_in N_out"/>
    </vehicle>

    <vehicle id="flow_19_increasing_300_N_right.0" type="car" depart="300.00" departLane="1" departPos="111.6918" departSpeed="5.4775" speedFactor="0.9146" arrival="327.00">
        <route edges="N_in W_out"/>
    </vehicle>

    <vehicle id="flow_18_increasing_300_N_left.0" type="moto" depart="300.00" departLane="1" departPos="65.3279" departSpeed="11.6978" speedFactor="0.9305" arrival="329.00">
        <route edges="N_in E_out"/>
    </vehicle>

    <vehicle id="flow_27_increasing_300_E_right.0" type="moto" depart="300.00" departLane="0" departPos="2.2119" departSpeed="14.1007" speedFactor="1.1043" arrival="329.00">
        <route edges="S_in E_out"/>
    </vehicle>

    <vehicle id="flow_23_increasing_300_S_right.0" type="moto" depart="300.00" departLane="1" departPos="2.773" departSpeed="8.1444" speedFactor="1.0668" arrival="331.00">
        <route edges="S_in E_out"/>
    </vehicle>

    <vehicle id="flow_21_increasing_300_S_straight.0" type="moto" depart="300.00" departLane="1" departPos="19.5053" departSpeed="8.1894" speedFactor="1.0276" arrival="332.00">
        <route edges="S_in S_out"/>
    </vehicle>

    <vehicle id="flow_32_increasing_300_W_uturn.0" type="moto" depart="300.00" departLane="1" departPos="29.0743" departSpeed="2.814" speedFactor="0.9756" arrival="333.00">
        <route edges="N_in E_out"/>
    </vehicle>

    <vehicle id="flow_31_increasing_300_W_right.0" type="moto" depart="300.00" departLane="0" departPos="159.9604" departSpeed="10.5831" speedFactor="0.9711" arrival="340.00">
        <route edges="W_in S_out"/>
    </vehicle>

    <vehicle id="flow_29_increasing_300_W_straight.0" type="moto" depart="300.00" departLane="1" departPos="155.3486" departSpeed="12.0732" speedFactor="1.0203" arrival="341.00">
        <route edges="W_in E_out"/>
    </vehicle>

    <vehicle id="flow_30_increasing_300_W_left.0" type="moto" depart="300.00" departLane="0" departPos="92.4194" departSpeed="15.2167" speedFactor="1.0983" arrival="341.00">
        <route edges="W_in N_out"/>
    </vehicle>

    <vehicle id="flow_28_increasing_300_E_uturn.0" type="car" depart="300.00" departLane="0" departPos="78.0885" departSpeed="11.3419" speedFactor="0.8975" arrival="344.00">
        <route edges="W_in E_out"/>
    </vehicle>

    <vehicle id="flow_20_increasing_300_N_uturn.0" type="car" depart="300.00" departLane="1" departPos="129.0888" departSpeed="4.6647" speedFactor="0.8844" arrival="348.00">
        <route edges="E_in S_out"/>
    </vehicle>

    <vehicle id="flow_26_increasing_300_E_left.0" type="moto" depart="300.00" departLane="0" departPos="0.1622" departSpeed="4.2485" speedFactor="0.9020" arrival="350.00">
        <route edges="E_in S_out"/>
    </vehicle>

    <vehicle id="flow_25_increasing_300_E_straight.1" type="moto" depart="347.00" departLane="1" departPos="137.1078" departSpeed="4.5338" speedFactor="1.0085" arrival="378.00">
        <route edges="N_in W_out"/>
    </vehicle>

    <vehicle id="flow_17_increasing_300_N_straight.1" type="moto" depart="351.00" departLane="0" departPos="18.5245" departSpeed="1.6936" speedFactor="1.0626" arrival="381.00">
        <route edges="N_in S_out"/>
    </vehicle>

    <vehicle id="flow_21_increasing_300_S_straight.1" type="truck" depart="350.00" departLane="1" departPos="152.0111" departSpeed="4.6054" speedFactor="0.9040" arrival="389.00">
        <route edges="S_in S_out"/>
    </vehicle>

    <vehicle id="flow_29_increasing_300_W_straight.1" type="moto" depart="350.00" departLane="0" departPos="24.5526" departSpeed="6.4472" speedFactor="0.8003" arrival="395.00">
        <route edges="W_in E_out"/>
    </vehicle>

    <vehicle id="flow_17_increasing_300_N_straight.2" type="moto" depart="401.00" departLane="1" departPos="41.8299" departSpeed="15.0513" speedFactor="1.1705" arrival="428.00">
        <route edges="N_in S_out"/>
    </vehicle>

    <vehicle id="flow_25_increasing_300_E_straight.2" type="moto" depart="393.00" departLane="1" departPos="37.0366" departSpeed="3.3816" speedFactor="1.0682" arrival="430.00">
        <route edges="N_in W_out"/>
    </vehicle>

    <vehicle id="flow_27_increasing_300_E_right.1" type="moto" depart="415.00" departLane="1" departPos="150.3544" departSpeed="8.825" speedFactor="1.1166" arrival="434.00">
        <route edges="S_in E_out"/>
    </vehicle>

    <vehicle id="flow_21_increasing_300_S_straight.2" type="moto" depart="399.00" departLane="1" departPos="47.4954" departSpeed="3.7149" speedFactor="0.8330" arrival="437.00">
        <route edges="S_in S_out"/>
    </vehicle>

    <vehicle id="flow_31_increasing_300_W_right.1" type="car" depart="418.00" departLane="0" departPos="107.9927" departSpeed="1.3449" speedFactor="1.1439" arrival="444.00">
        <route edges="W_in S_out"/>
    </vehicle>

    <vehicle id="flow_29_increasing_300_W_straight.2" type="moto" depart="400.00" departLane="0" departPos="36.1232" departSpeed="5.7485" speedFactor="0.8878" arrival="446.00">
        <route edges="W_in E_out"/>
    </vehicle>

    <vehicle id="flow_26_increasing_300_E_left.1" type="moto" depart="425.00" departLane="1" departPos="186.2427" departSpeed="2.7587" speedFactor="1.0413" arrival="447.00">
        <route edges="E_in S_out"/>
    </vehicle>

    <vehicle id="flow_23_increasing_300_S_right.1" type="moto" depart="422.00" departLane="1" departPos="16.1283" departSpeed="8.8937" speedFactor="1.0873" arrival="456.00">
        <route edges="S_in E_out"/>
    </vehicle>

    <vehicle id="flow_18_increasing_300_N_left.1" type="moto" depart="420.00" departLane="0" departPos="140.508" departSpeed="10.021" speedFactor="0.9618" arrival="458.00">
        <route edges="N_in E_out"/>
    </vehicle>

    <vehicle id="flow_19_increasing_300_N_right.1" type="container" depart="424.00" departLane="1" departPos="140.1205" departSpeed="10.5048" speedFactor="0.9532" arrival="464.00">
        <route edges="N_in W_out"/>
    </vehicle>

    <vehicle id="flow_22_increasing_300_S_left.1" type="moto" depart="420.00" departLane="1" departPos="86.4019" departSpeed="1.558" speedFactor="0.9385" arrival="465.00">
        <route edges="N_in W_out"/>
    </vehicle>

    <vehicle id="flow_30_increasing_300_W_left.1" type="moto" depart="427.00" departLane="1" departPos="100.1701" departSpeed="1.4832" speedFactor="0.9730" arrival="470.00">
        <route edges="W_in N_out"/>
    </vehicle>

    <vehicle id="flow_25_increasing_300_E_straight.3" type="car" depart="439.00" departLane="1" departPos="43.6737" departSpeed="8.5722" speedFactor="1.0648" arrival="481.00">
        <route edges="N_in W_out"/>
    </vehicle>

    <vehicle id="flow_17_increasing_300_N_straight.3" type="car" depart="451.00" departLane="0" departPos="50.1096" departSpeed="4.9216" speedFactor="1.0212" arrival="482.00">
        <route edges="N_in S_out"/>
    </vehicle>

    <vehicle id="flow_21_increasing_300_S_straight.3" type="moto" depart="449.00" departLane="0" departPos="171.5609" departSpeed="10.5127" speedFactor="1.2976" arrival="485.00">
        <route edges="S_in S_out"/>
    </vehicle>

    <vehicle id="flow_29_increasing_300_W_straight.3" type="moto" depart="450.00" departLane="0" departPos="43.7958" departSpeed="10.6794" speedFactor="0.8391" arrival="499.00">
        <route edges="W_in E_out"/>
    </vehicle>

    <vehicle id="flow_25_increasing_300_E_straight.4" type="moto" depart="485.00" departLane="0" departPos="144.2877" departSpeed="4.689" speedFactor="1.1157" arrival="506.00">
        <route edges="N_in W_out"/>
    </vehicle>

    <vehicle id="flow_17_increasing_300_N_straight.4" type="moto" depart="502.00" departLane="1" departPos="5.9793" departSpeed="0.7836" speedFactor="1.1571" arrival="531.00">
        <route edges="N_in S_out"/>
    </vehicle>

    <vehicle id="flow_21_increasing_300_S_straight.4" type="moto" depart="498.00" departLane="1" departPos="177.748" departSpeed="4.1544" speedFactor="0.9645" arrival="537.00">
        <route edges="S_in S_out"/>
    </vehicle>

    <vehicle id="flow_29_increasing_300_W_straight.4" type="bus" depart="499.00" departLane="1" departPos="40.1395" departSpeed="0.2018" speedFactor="1.0917" arrival="552.00">
        <route edges="W_in E_out"/>
    </vehicle>

    <vehicle id="flow_27_increasing_300_E_right.2" type="moto" depart="530.00" departLane="0" departPos="38.2894" departSpeed="12.6326" speedFactor="0.9897" arrival="560.00">
        <route edges="S_in E_out"/>
    </vehicle>

    <vehicle id="flow_32_increasing_300_W_uturn.1" type="car" depart="536.00" departLane="1" departPos="133.5146" departSpeed="6.8337" speedFactor="1.0323" arrival="560.00">
        <route edges="N_in E_out"/>
    </vehicle>

    <vehicle id="flow_22_increasing_300_S_left.2" type="moto" depart="540.00" departLane="1" departPos="169.4272" departSpeed="3.37" speedFactor="1.0039" arrival="560.00">
        <route edges="N_in W_out"/>
    </vehicle>

    <vehicle id="flow_24_increasing_300_S_uturn.1" type="moto" depart="540.00" departLane="1" departPos="173.8291" departSpeed="0.7702" speedFactor="1.1421" arrival="561.00">
        <route edges="S_in S_out"/>
    </vehicle>

    <vehicle id="flow_25_increasing_300_E_straight.5" type="truck" depart="531.00" departLane="1" departPos="7.4986" departSpeed="3.6869" speedFactor="0.9315" arrival="568.00">
        <route edges="N_in W_out"/>
    </vehicle>

    <vehicle id="flow_18_increasing_300_N_left.2" type="moto" depart="539.00" departLane="1" departPos="60.4969" departSpeed="3.1182" speedFactor="1.0387" arrival="568.00">
        <route edges="N_in E_out"/>
    </vehicle>

    <vehicle id="flow_19_increasing_300_N_right.2" type="moto" depart="547.00" departLane="1" departPos="140.3456" departSpeed="9.5833" speedFactor="1.0387" arrival="570.00">
        <route edges="N_in W_out"/>
    </vehicle>

    <vehicle id="flow_28_increasing_300_E_uturn.1" type="moto" depart="538.00" departLane="1" departPos="55.6396" departSpeed="10.6372" speedFactor="0.8620" arrival="576.00">
        <route edges="W_in E_out"/>
    </vehicle>

    <vehicle id="flow_31_increasing_300_W_right.2" type="truck" depart="535.00" departLane="0" departPos="110.6444" departSpeed="6.8379" speedFactor="0.9032" arrival="577.00">
        <route edges="W_in S_out"/>
    </vehicle>

    <vehicle id="flow_29_increasing_300_W_straight.5" type="truck" depart="549.00" departLane="0" departPos="123.2337" departSpeed="11.4676" speedFactor="0.9784" arrival="578.00">
        <route edges="W_in E_out"/>
    </vehicle>

    <vehicle id="flow_20_increasing_300_N_uturn.1" type="moto" depart="538.00" departLane="0" departPos="72.9854" departSpeed="6.8452" speedFactor="1.0281" arrival="581.00">
        <route edges="E_in S_out"/>
    </vehicle>

    <vehicle id="flow_26_increasing_300_E_left.2" type="moto" depart="549.00" departLane="0" departPos="34.8311" departSpeed="5.7612" speedFactor="1.0448" arrival="582.00">
        <route edges="E_in S_out"/>
    </vehicle>

    <vehicle id="flow_30_increasing_300_W_left.2" type="car" depart="553.00" departLane="0" departPos="57.4616" departSpeed="5.3985" speedFactor="0.9547" arrival="583.00">
        <route edges="W_in N_out"/>
    </vehicle>

    <vehicle id="flow_17_increasing_300_N_straight.5" type="moto" depart="552.00" departLane="1" departPos="169.9316" departSpeed="3.391" speedFactor="1.0140" arrival="587.00">
        <route edges="N_in S_out"/>
    </vehicle>

    <vehicle id="flow_23_increasing_300_S_right.2" type="truck" depart="543.00" departLane="1" departPos="67.694" departSpeed="0.1592" speedFactor="1.0325" arrival="591.00">
        <route edges="S_in E_out"/>
    </vehicle>

    <vehicle id="flow_21_increasing_300_S_straight.5" type="truck" depart="548.00" departLane="0" departPos="109.2982" departSpeed="0.3033" speedFactor="0.8196" arrival="593.00">
        <route edges="S_in S_out"/>
    </vehicle>

    <vehicle id="flow_25_increasing_300_E_straight.6" type="moto" depart="577.00" departLane="0" departPos="131.4461" departSpeed="13.3247" speedFactor="1.0047" arrival="612.00">
        <route edges="N_in W_out"/>
    </vehicle>

    <vehicle id="flow_21_increasing_300_S_straight.6" type="moto" depart="597.00" departLane="0" departPos="184.7562" departSpeed="4.6714" speedFactor="1.0699" arrival="616.00">
        <route edges="S_in S_out"/>
    </vehicle>

    <vehicle id="flow_33_increasing_600_N_straight.0" type="moto" depart="600.00" departLane="1" departPos="181.5712" departSpeed="5.2601" speedFactor="0.8847" arrival="620.00">
        <route edges="N_in S_out"/>
    </vehicle>

    <vehicle id="flow_39_increasing_600_S_right.0" type="bus" depart="600.00" departLane="1" departPos="170.5857" departSpeed="9.2533" speedFactor="0.9554" arrival="621.00">
        <route edges="S_in E_out"/>
    </vehicle>

    <vehicle id="flow_29_increasing_300_W_straight.6" type="moto" depart="599.00" departLane="0" departPos="114.5714" departSpeed="12.4797" speedFactor="1.1365" arrival="625.00">
        <route edges="W_in E_out"/>
    </vehicle>

    <vehicle id="flow_47_increasing_600_W_right.0" type="moto" depart="600.00" departLane="1" departPos="50.8725" departSpeed="13.6675" speedFactor="1.1530" arrival="626.00">
        <route edges="W_in S_out"/>
    </vehicle>

    <vehicle id="flow_44_increasing_600_E_uturn.0" type="moto" depart="600.00" departLane="0" departPos="170.7684" departSpeed="6.7656" speedFactor="1.1523" arrival="627.00">
        <route edges="E_in E_out"/>
    </vehicle>

    <vehicle id="flow_45_increasing_600_W_straight.0" type="moto" depart="600.00" departLane="1" departPos="167.1176" departSpeed="0.8094" speedFactor="0.9662" arrival="628.00">
        <route edges="W_in E_out"/>
    </vehicle>

    <vehicle id="flow_41_increasing_600_E_straight.0" type="car" depart="600.00" departLane="0" departPos="28.3376" departSpeed="11.291" speedFactor="0.9957" arrival="629.00">
        <route edges="E_in W_out"/>
    </vehicle>

    <vehicle id="flow_34_increasing_600_N_left.0" type="moto" depart="600.00" departLane="0" departPos="14.8665" departSpeed="4.271" speedFactor="0.9556" arrival="633.00">
        <route edges="E_in S_out"/>
    </vehicle>

    <vehicle id="flow_38_increasing_600_S_left.0" type="truck" depart="600.00" departLane="0" departPos="169.1917" departSpeed="8.2111" speedFactor="1.0932" arrival="634.00">
        <route edges="W_in W_out"/>
    </vehicle>

    <vehicle id="flow_36_increasing_600_N_uturn.0" type="moto" depart="600.00" departLane="0" departPos="27.2886" departSpeed="12.8102" speedFactor="1.0775" arrival="637.00">
        <route edges="N_in N_out"/>
    </vehicle>

    <vehicle id="flow_40_increasing_600_S_uturn.0" type="moto" depart="600.00" departLane="0" departPos="128.7404" departSpeed="3.239" speedFactor="0.8917" arrival="641.00">
        <route edges="S_in S_out"/>
    </vehicle>

    <vehicle id="flow_37_increasing_600_S_straight.0" type="car" depart="600.00" departLane="1" departPos="47.2903" departSpeed="0.8575" speedFactor="0.9778" arrival="643.00">
        <route edges="S_in S_out"/>
    </vehicle>

    <vehicle id="flow_42_increasing_600_E_left.0" type="moto" depart="600.00" departLane="1" departPos="21.3277" departSpeed="6.0866" speedFactor="0.8543" arrival="655.00">
        <route edges="E_in S_out"/>
    </vehicle>

    <vehicle id="flow_43_increasing_600_E_right.0" type="moto" depart="600.00" departLane="1" departPos="38.4375" departSpeed="0.8746" speedFactor="0.7657" arrival="656.00">
        <route edges="E_in N_out"/>
    </vehicle>

    <vehicle id="flow_35_increasing_600_N_right.0" type="car" depart="600.00" departLane="1" departPos="1.4852" departSpeed="4.556" speedFactor="0.9394" arrival="657.00">
        <route edges="E_in S_out"/>
    </vehicle>

    <vehicle id="flow_46_increasing_600_W_left.0" type="truck" depart="600.00" departLane="0" departPos="98.6919" departSpeed="1.465" speedFactor="0.8815" arrival="658.00">
        <route edges="W_in N_out"/>
    </vehicle>

    <vehicle id="flow_48_increasing_600_W_uturn.0" type="moto" depart="600.00" departLane="1" departPos="43.1771" departSpeed="3.2317" speedFactor="0.9806" arrival="658.00">
        <route edges="W_in W_out"/>
    </vehicle>

    <vehicle id="flow_45_increasing_600_W_straight.1" type="moto" depart="637.00" departLane="1" departPos="138.898" departSpeed="11.4695" speedFactor="0.9471" arrival="658.00">
        <route edges="W_in E_out"/>
    </vehicle>

    <vehicle id="flow_37_increasing_600_S_straight.1" type="moto" depart="637.00" departLane="1" departPos="120.4896" departSpeed="12.053" speedFactor="0.8756" arrival="667.00">
        <route edges="S_in S_out"/>
    </vehicle>

    <vehicle id="flow_33_increasing_600_N_straight.1" type="moto" depart="637.00" departLane="0" departPos="114.397" departSpeed="11.3569" speedFactor="0.8416" arrival="668.00">
        <route edges="N_in S_out"/>
    </vehicle>

    <vehicle id="flow_41_increasing_600_E_straight.1" type="moto" depart="637.00" departLane="1" departPos="0.9771" departSpeed="9.2024" speedFactor="1.0747" arrival="687.00">
        <route edges="E_in W_out"/>
    </vehicle>

    <vehicle id="flow_45_increasing_600_W_straight.2" type="truck" depart="674.00" departLane="0" departPos="184.144" departSpeed="0.7413" speedFactor="1.0167" arrival="696.00">
        <route edges="W_in E_out"/>
    </vehicle>

    <vehicle id="flow_41_increasing_600_E_straight.2" type="bus" depart="674.00" departLane="0" departPos="7.5649" departSpeed="10.5675" speedFactor="0.9363" arrival="706.00">
        <route edges="E_in W_out"/>
    </vehicle>

    <vehicle id="flow_33_increasing_600_N_straight.2" type="bus" depart="674.00" departLane="1" departPos="22.618" departSpeed="0.2033" speedFactor="1.0217" arrival="710.00">
        <route edges="N_in S_out"/>
    </vehicle>

    <vehicle id="flow_37_increasing_600_S_straight.2" type="truck" depart="673.00" departLane="0" departPos="27.7577" departSpeed="11.3952" speedFactor="0.9700" arrival="715.00">
        <route edges="S_in S_out"/>
    </vehicle>

    <vehicle id="flow_39_increasing_600_S_right.1" type="truck" depart="690.00" departLane="1" departPos="127.7831" departSpeed="8.269" speedFactor="0.9234" arrival="716.00">
        <route edges="S_in E_out"/>
    </vehicle>

    <vehicle id="flow_43_increasing_600_E_right.1" type="moto" depart="692.00" departLane="1" departPos="80.4314" departSpeed="10.3664" speedFactor="0.9174" arrival="735.00">
        <route edges="E_in N_out"/>
    </vehicle>

    <vehicle id="flow_47_increasing_600_W_right.1" type="moto" depart="695.00" departLane="0" departPos="188.0912" departSpeed="1.5078" speedFactor="0.8950" arrival="735.00">
        <route edges="W_in S_out"/>
    </vehicle>

    <vehicle id="flow_38_increasing_600_S_left.1" type="moto" depart="696.00" departLane="1" departPos="22.6964" departSpeed="3.1321" speedFactor="0.8697" arrival="736.00">
        <route edges="W_in W_out"/>
    </vehicle>
