<?xml version="1.0" encoding="UTF-8"?>

<!-- generated on 2025-12-09 21:32:14 by Eclipse SUMO sumo Version 1.18.0
<configuration xmlns:xsi="http://www.w3.org/2001/XMLSchema-instance" xsi:noNamespaceSchemaLocation="http://sumo.dlr.de/xsd/sumoConfiguration.xsd">

    <input>
        <net-file value="nets/120p4k/net.net.xml"/>
        <route-files value="nets/120p4k/route_temp_288_128717304264496_34832144.rou.xml"/>
    </input>

    <output>
        <summary-output value="result_ddqn_0.9_0.3/summary_ep_10.xml"/>
        <tripinfo-output value="result_ddqn_0.9_0.3/tripinfo_ep_10.xml"/>
        <vehroute-output value="result_ddqn_0.9_0.3/vehroute_ep_10.xml"/>
    </output>

    <time>
        <begin value="0"/>
    </time>

    <report>
        <verbose value="true"/>
        <no-warnings value="true"/>
        <no-step-log value="true"/>
    </report>

    <traci_server>
        <remote-port value="34595"/>
    </traci_server>

    <gui_only>
        <gui-settings-file value="nets/120p4k/gui-settings.xml"/>
        <quit-on-end value="true"/>
    </gui_only>

</configuration>
-->

<routes xmlns:xsi="http://www.w3.org/2001/XMLSchema-instance" xsi:noNamespaceSchemaLocation="http://sumo.dlr.de/xsd/routes_file.xsd">
    <vehicle id="flow_6_increasing_0_S_left.0" type="moto" depart="0.00" departLane="1" departPos="166.0107" departSpeed="0.7376" speedFactor="0.8806" arrival="25.00">
        <route edges="S_in W_out"/>
    </vehicle>

    <vehicle id="flow_8_increasing_0_S_uturn.0" type="moto" depart="0.00" departLane="0" departPos="120.1072" departSpeed="4.4837" speedFactor="1.0505" arrival="25.00">
        <route edges="S_in S_out"/>
    </vehicle>

    <vehicle id="flow_4_increasing_0_N_uturn.0" type="moto" depart="0.00" departLane="1" departPos="127.6015" departSpeed="0.0761" speedFactor="0.9074" arrival="28.00">
        <route edges="N_in N_out"/>
    </vehicle>

    <vehicle id="flow_2_increasing_0_N_left.0" type="moto" depart="0.00" departLane="1" departPos="8.2688" departSpeed="8.3291" speedFactor="1.0157" arrival="31.00">
        <route edges="N_in E_out"/>
    </vehicle>

    <vehicle id="flow_7_increasing_0_S_right.0" type="bus" depart="0.00" departLane="0" departPos="8.759" departSpeed="8.4712" speedFactor="0.8915" arrival="36.00">
        <route edges="S_in E_out"/>
    </vehicle>

    <vehicle id="flow_9_increasing_0_E_straight.0" type="car" depart="0.00" departLane="0" departPos="168.2937" departSpeed="10.7269" speedFactor="0.9362" arrival="37.00">
        <route edges="E_in W_out"/>
    </vehicle>

    <vehicle id="flow_16_increasing_0_W_uturn.0" type="moto" depart="0.00" departLane="1" departPos="153.8984" departSpeed="3.4838" speedFactor="1.0383" arrival="38.00">
        <route edges="W_in W_out"/>
    </vehicle>

    <vehicle id="flow_5_increasing_0_S_straight.0" type="moto" depart="0.00" departLane="1" departPos="107.3659" departSpeed="7.2113" speedFactor="1.1475" arrival="39.00">
        <route edges="W_in W_out"/>
    </vehicle>

    <vehicle id="flow_13_increasing_0_W_straight.0" type="bus" depart="0.00" departLane="0" departPos="24.5296" departSpeed="3.9683" speedFactor="0.8617" arrival="39.00">
        <route edges="W_in E_out"/>
    </vehicle>

    <vehicle id="flow_14_increasing_0_W_left.0" type="moto" depart="0.00" departLane="1" departPos="182.8773" departSpeed="5.6108" speedFactor="1.0101" arrival="39.00">
        <route edges="W_in N_out"/>
    </vehicle>

    <vehicle id="flow_10_increasing_0_E_left.0" type="car" depart="0.00" departLane="0" departPos="44.8816" departSpeed="8.1909" speedFactor="1.0826" arrival="40.00">
        <route edges="E_in S_out"/>
    </vehicle>

    <vehicle id="flow_12_increasing_0_E_uturn.0" type="moto" depart="0.00" departLane="0" departPos="5.6544" departSpeed="13.7593" speedFactor="1.0348" arrival="41.00">
        <route edges="E_in E_out"/>
    </vehicle>

    <vehicle id="flow_11_increasing_0_E_right.0" type="bus" depart="0.00" departLane="1" departPos="144.9496" departSpeed="4.0187" speedFactor="0.9581" arrival="42.00">
        <route edges="E_in N_out"/>
    </vehicle>

    <vehicle id="flow_3_increasing_0_N_right.0" type="moto" depart="0.00" departLane="0" departPos="103.3842" departSpeed="3.8146" speedFactor="1.1088" arrival="43.00">
        <route edges="E_in N_out"/>
    </vehicle>

    <vehicle id="flow_15_increasing_0_W_right.0" type="moto" depart="0.00" departLane="0" departPos="31.8437" departSpeed="2.6276" speedFactor="0.8472" arrival="51.00">
        <route edges="N_in N_out"/>
    </vehicle>

    <vehicle id="flow_1_increasing_0_N_straight.0" type="truck" depart="0.00" departLane="0" departPos="8.6229" departSpeed="8.5053" speedFactor="0.8588" arrival="55.00">
        <route edges="N_in S_out"/>
    </vehicle>

    <vehicle id="flow_9_increasing_0_E_straight.1" type="moto" depart="65.00" departLane="0" departPos="135.6701" departSpeed="10.69" speedFactor="1.1582" arrival="84.00">
        <route edges="E_in W_out"/>
    </vehicle>

    <vehicle id="flow_13_increasing_0_W_straight.1" type="moto" depart="68.00" departLane="0" departPos="93.3916" departSpeed="4.9246" speedFactor="1.1853" arrival="90.00">
        <route edges="W_in E_out"/>
    </vehicle>

    <vehicle id="flow_5_increasing_0_S_straight.1" type="moto" depart="67.00" departLane="1" departPos="177.286" departSpeed="8.3896" speedFactor="0.8727" arrival="91.00">
        <route edges="W_in W_out"/>
    </vehicle>

    <vehicle id="flow_1_increasing_0_N_straight.1" type="moto" depart="70.00" departLane="1" departPos="181.05" departSpeed="2.683" speedFactor="1.1462" arrival="110.00">
        <route edges="N_in S_out"/>
    </vehicle>

    <vehicle id="flow_9_increasing_0_E_straight.2" type="moto" depart="129.00" departLane="1" departPos="28.7874" departSpeed="8.8635" speedFactor="0.9938" arrival="158.00">
        <route edges="E_in W_out"/>
    </vehicle>

    <vehicle id="flow_5_increasing_0_S_straight.2" type="moto" depart="133.00" departLane="1" departPos="103.6674" departSpeed="3.7298" speedFactor="0.9623" arrival="163.00">
        <route edges="W_in W_out"/>
    </vehicle>

    <vehicle id="flow_1_increasing_0_N_straight.2" type="moto" depart="140.00" departLane="1" departPos="64.277" departSpeed="4.0481" speedFactor="0.9279" arrival="174.00">
        <route edges="N_in S_out"/>
    </vehicle>

    <vehicle id="flow_13_increasing_0_W_straight.2" type="truck" depart="135.00" departLane="0" departPos="33.9342" departSpeed="0.899" speedFactor="0.9657" arrival="190.00">
        <route edges="W_in E_out"/>
    </vehicle>

    <vehicle id="flow_14_increasing_0_W_left.1" type="moto" depart="166.00" departLane="1" departPos="97.231" departSpeed="5.6629" speedFactor="1.0453" arrival="192.00">
        <route edges="W_in N_out"/>
    </vehicle>

    <vehicle id="flow_2_increasing_0_N_left.1" type="moto" depart="163.00" departLane="1" departPos="39.2795" departSpeed="8.8514" speedFactor="1.1228" arrival="197.00">
        <route edges="N_in E_out"/>
    </vehicle>

    <vehicle id="flow_6_increasing_0_S_left.1" type="moto" depart="166.00" departLane="0" departPos="80.2425" departSpeed="10.177" speedFactor="1.0788" arrival="198.00">
        <route edges="S_in W_out"/>
    </vehicle>

    <vehicle id="flow_15_increasing_0_W_right.1" type="moto" depart="164.00" departLane="0" departPos="54.9911" departSpeed="5.0692" speedFactor="1.0365" arrival="200.00">
        <route edges="N_in N_out"/>
    </vehicle>

    <vehicle id="flow_7_increasing_0_S_right.1" type="container" depart="163.00" departLane="0" departPos="15.1679" departSpeed="0.5108" speedFactor="0.7845" arrival="211.00">
        <route edges="S_in E_out"/>
    </vehicle>

    <vehicle id="flow_13_increasing_0_W_straight.3" type="moto" depart="203.00" departLane="0" departPos="184.1938" departSpeed="4.9526" speedFactor="1.2027" arrival="219.00">
        <route edges="W_in E_out"/>
    </vehicle>

    <vehicle id="flow_10_increasing_0_E_left.1" type="car" depart="170.00" departLane="1" departPos="79.0964" departSpeed="6.2663" speedFactor="0.7706" arrival="229.00">
        <route edges="E_in S_out"/>
    </vehicle>

    <vehicle id="flow_3_increasing_0_N_right.1" type="container" depart="174.00" departLane="0" departPos="166.0021" departSpeed="1.3313" speedFactor="0.9146" arrival="229.00">
        <route edges="E_in N_out"/>
    </vehicle>

    <vehicle id="flow_11_increasing_0_E_right.1" type="moto" depart="170.00" departLane="0" departPos="4.5211" departSpeed="11.9566" speedFactor="0.8806" arrival="230.00">
        <route edges="E_in N_out"/>
    </vehicle>

    <vehicle id="flow_9_increasing_0_E_straight.3" type="truck" depart="193.00" departLane="0" departPos="93.4122" departSpeed="10.947" speedFactor="0.8515" arrival="231.00">
        <route edges="E_in W_out"/>
    </vehicle>

    <vehicle id="flow_5_increasing_0_S_straight.3" type="moto" depart="200.00" departLane="0" departPos="86.4153" departSpeed="10.6342" speedFactor="1.0764" arrival="232.00">
        <route edges="W_in W_out"/>
    </vehicle>

    <vehicle id="flow_1_increasing_0_N_straight.3" type="moto" depart="210.00" departLane="0" departPos="65.0085" departSpeed="6.0426" speedFactor="1.0575" arrival="235.00">
        <route edges="N_in S_out"/>
    </vehicle>

    <vehicle id="flow_9_increasing_0_E_straight.4" type="bus" depart="257.00" departLane="1" departPos="88.4153" departSpeed="1.3442" speedFactor="0.9525" arrival="315.00">
        <route edges="E_in W_out"/>
    </vehicle>

    <vehicle id="flow_13_increasing_0_W_straight.4" type="truck" depart="270.00" departLane="0" departPos="135.2371" departSpeed="1.5016" speedFactor="0.8691" arrival="316.00">
        <route edges="W_in E_out"/>
    </vehicle>

    <vehicle id="flow_5_increasing_0_S_straight.4" type="container" depart="266.00" departLane="1" departPos="53.3168" departSpeed="10.5368" speedFactor="0.9706" arrival="317.00">
        <route edges="W_in W_out"/>
    </vehicle>

    <vehicle id="flow_21_increasing_300_S_straight.0" type="moto" depart="300.00" departLane="1" departPos="129.0888" departSpeed="5.42" speedFactor="1.0276" arrival="321.00">
        <route edges="S_in N_out"/>
    </vehicle>

    <vehicle id="flow_1_increasing_0_N_straight.4" type="car" depart="280.00" departLane="0" departPos="70.4575" departSpeed="11.7902" speedFactor="0.9617" arrival="324.00">
        <route edges="N_in S_out"/>
    </vehicle>

    <vehicle id="flow_23_increasing_300_S_right.0" type="moto" depart="300.00" departLane="0" departPos="155.6805" departSpeed="9.5069" speedFactor="1.0668" arrival="324.00">
        <route edges="N_in W_out"/>
    </vehicle>

    <vehicle id="flow_28_increasing_300_E_uturn.0" type="car" depart="300.00" departLane="1" departPos="174.172" departSpeed="8.2165" speedFactor="0.8975" arrival="329.00">
        <route edges="N_in W_out"/>
    </vehicle>

    <vehicle id="flow_24_increasing_300_S_uturn.0" type="moto" depart="300.00" departLane="1" departPos="2.773" departSpeed="8.7132" speedFactor="1.1413" arrival="330.00">
        <route edges="S_in S_out"/>
    </vehicle>

    <vehicle id="flow_20_increasing_300_N_uturn.0" type="car" depart="300.00" departLane="1" departPos="111.6918" departSpeed="5.2966" speedFactor="0.8844" arrival="331.00">
        <route edges="N_in N_out"/>
    </vehicle>

    <vehicle id="flow_19_increasing_300_N_right.0" type="car" depart="300.00" departLane="1" departPos="65.3279" departSpeed="1.7406" speedFactor="0.9146" arrival="333.00">
        <route edges="N_in W_out"/>
    </vehicle>

    <vehicle id="flow_25_increasing_300_E_straight.0" type="moto" depart="300.00" departLane="0" departPos="91.5182" departSpeed="12.8132" speedFactor="1.0390" arrival="336.00">
        <route edges="E_in W_out"/>
    </vehicle>

    <vehicle id="flow_27_increasing_300_E_right.0" type="moto" depart="300.00" departLane="0" departPos="64.2471" departSpeed="7.2188" speedFactor="1.1043" arrival="336.00">
        <route edges="E_in N_out"/>
    </vehicle>

    <vehicle id="flow_29_increasing_300_W_straight.0" type="moto" depart="300.00" departLane="1" departPos="172.3747" departSpeed="6.8984" speedFactor="1.0203" arrival="336.00">
        <route edges="W_in E_out"/>
    </vehicle>

    <vehicle id="flow_31_increasing_300_W_right.0" type="moto" depart="300.00" departLane="1" departPos="188.9833" departSpeed="0.6157" speedFactor="0.9711" arrival="336.00">
        <route edges="W_in S_out"/>
    </vehicle>

    <vehicle id="flow_30_increasing_300_W_left.0" type="moto" depart="300.00" departLane="0" departPos="161.4056" departSpeed="1.7456" speedFactor="1.0983" arrival="338.00">
        <route edges="W_in N_out"/>
    </vehicle>

    <vehicle id="flow_32_increasing_300_W_uturn.0" type="moto" depart="300.00" departLane="1" departPos="148.6531" departSpeed="12.2397" speedFactor="0.9756" arrival="339.00">
        <route edges="W_in W_out"/>
    </vehicle>

    <vehicle id="flow_18_increasing_300_N_left.0" type="moto" depart="300.00" departLane="1" departPos="160.3044" departSpeed="12.6522" speedFactor="0.9305" arrival="341.00">
        <route edges="E_in E_out"/>
    </vehicle>

    <vehicle id="flow_26_increasing_300_E_left.0" type="moto" depart="300.00" departLane="1" departPos="65.5698" departSpeed="2.1001" speedFactor="0.9020" arrival="344.00">
        <route edges="E_in S_out"/>
    </vehicle>

    <vehicle id="flow_17_increasing_300_N_straight.0" type="car" depart="300.00" departLane="1" departPos="74.0695" departSpeed="0.5551" speedFactor="0.9376" arrival="350.00">
        <route edges="N_in S_out"/>
    </vehicle>

    <vehicle id="flow_22_increasing_300_S_left.0" type="moto" depart="300.00" departLane="1" departPos="19.5053" departSpeed="7.28" speedFactor="0.9135" arrival="351.00">
        <route edges="N_in E_out"/>
    </vehicle>

    <vehicle id="flow_17_increasing_300_N_straight.1" type="moto" depart="351.00" departLane="1" departPos="29.8839" departSpeed="11.8419" speedFactor="1.0626" arrival="378.00">
        <route edges="N_in S_out"/>
    </vehicle>

    <vehicle id="flow_21_increasing_300_S_straight.1" type="truck" depart="350.00" departLane="1" departPos="84.6621" departSpeed="1.9269" speedFactor="0.9040" arrival="381.00">
        <route edges="S_in N_out"/>
    </vehicle>

    <vehicle id="flow_25_increasing_300_E_straight.1" type="moto" depart="347.00" departLane="0" departPos="63.1043" departSpeed="11.8267" speedFactor="1.0085" arrival="398.00">
        <route edges="E_in W_out"/>
    </vehicle>

    <vehicle id="flow_29_increasing_300_W_straight.1" type="moto" depart="350.00" departLane="1" departPos="84.296" departSpeed="8.0444" speedFactor="0.8003" arrival="402.00">
        <route edges="W_in E_out"/>
    </vehicle>

    <vehicle id="flow_25_increasing_300_E_straight.2" type="moto" depart="393.00" departLane="0" departPos="149.6933" departSpeed="1.9228" speedFactor="1.0682" arrival="413.00">
        <route edges="E_in W_out"/>
    </vehicle>

    <vehicle id="flow_17_increasing_300_N_straight.2" type="moto" depart="401.00" departLane="0" departPos="161.3057" departSpeed="4.008" speedFactor="1.1705" arrival="419.00">
        <route edges="N_in S_out"/>
    </vehicle>

    <vehicle id="flow_29_increasing_300_W_straight.2" type="moto" depart="400.00" departLane="1" departPos="174.3479" departSpeed="2.4106" speedFactor="0.8878" arrival="436.00">
        <route edges="W_in E_out"/>
    </vehicle>

    <vehicle id="flow_31_increasing_300_W_right.1" type="car" depart="418.00" departLane="0" departPos="174.056" departSpeed="3.5079" speedFactor="1.1439" arrival="436.00">
        <route edges="W_in S_out"/>
    </vehicle>

    <vehicle id="flow_27_increasing_300_E_right.1" type="moto" depart="415.00" departLane="1" departPos="45.2041" departSpeed="2.9571" speedFactor="1.1166" arrival="443.00">
        <route edges="E_in N_out"/>
    </vehicle>

    <vehicle id="flow_18_increasing_300_N_left.1" type="moto" depart="420.00" departLane="1" departPos="76.4696" departSpeed="10.6017" speedFactor="0.9618" arrival="449.00">
        <route edges="E_in E_out"/>
    </vehicle>

    <vehicle id="flow_26_increasing_300_E_left.1" type="moto" depart="425.00" departLane="0" departPos="81.5805" departSpeed="1.2312" speedFactor="1.0413" arrival="452.00">
        <route edges="E_in S_out"/>
    </vehicle>

    <vehicle id="flow_30_increasing_300_W_left.1" type="moto" depart="427.00" departLane="0" departPos="114.6211" departSpeed="9.9952" speedFactor="0.9730" arrival="452.00">
        <route edges="W_in N_out"/>
    </vehicle>

    <vehicle id="flow_23_increasing_300_S_right.1" type="moto" depart="422.00" departLane="1" departPos="126.2936" departSpeed="11.2002" speedFactor="1.0873" arrival="456.00">
        <route edges="N_in W_out"/>
    </vehicle>

    <vehicle id="flow_21_increasing_300_S_straight.2" type="moto" depart="399.00" departLane="0" departPos="42.8454" departSpeed="1.1313" speedFactor="0.8330" arrival="460.00">
        <route edges="S_in N_out"/>
    </vehicle>

    <vehicle id="flow_22_increasing_300_S_left.1" type="moto" depart="420.00" departLane="0" departPos="6.5659" departSpeed="7.4303" speedFactor="0.9385" arrival="462.00">
        <route edges="N_in E_out"/>
    </vehicle>

    <vehicle id="flow_19_increasing_300_N_right.1" type="container" depart="424.00" departLane="0" departPos="1.3904" departSpeed="6.0379" speedFactor="0.9532" arrival="462.00">
        <route edges="N_in W_out"/>
    </vehicle>

    <vehicle id="flow_25_increasing_300_E_straight.3" type="car" depart="439.00" departLane="0" departPos="74.7856" departSpeed="14.5386" speedFactor="1.0648" arrival="470.00">
        <route edges="E_in W_out"/>
    </vehicle>

    <vehicle id="flow_29_increasing_300_W_straight.3" type="moto" depart="450.00" departLane="1" departPos="103.4641" departSpeed="2.6866" speedFactor="0.8391" arrival="479.00">
        <route edges="W_in E_out"/>
    </vehicle>

    <vehicle id="flow_21_increasing_300_S_straight.3" type="moto" depart="449.00" departLane="1" departPos="2.2093" departSpeed="8.4532" speedFactor="1.2976" arrival="481.00">
        <route edges="S_in N_out"/>
    </vehicle>

    <vehicle id="flow_17_increasing_300_N_straight.3" type="car" depart="451.00" departLane="1" departPos="42.0768" departSpeed="12.8442" speedFactor="1.0212" arrival="482.00">
        <route edges="N_in S_out"/>
    </vehicle>

    <vehicle id="flow_17_increasing_300_N_straight.4" type="moto" depart="502.00" departLane="1" departPos="69.3051" departSpeed="14.9998" speedFactor="1.1571" arrival="524.00">
        <route edges="N_in S_out"/>
    </vehicle>

    <vehicle id="flow_21_increasing_300_S_straight.4" type="moto" depart="498.00" departLane="1" departPos="84.7431" departSpeed="3.5432" speedFactor="0.9645" arrival="525.00">
        <route edges="S_in N_out"/>
    </vehicle>

    <vehicle id="flow_25_increasing_300_E_straight.4" type="moto" depart="485.00" departLane="0" departPos="35.6434" departSpeed="3.5823" speedFactor="1.1157" arrival="531.00">
        <route edges="E_in W_out"/>
    </vehicle>

    <vehicle id="flow_29_increasing_300_W_straight.4" type="bus" depart="499.00" departLane="0" departPos="157.0309" departSpeed="11.5481" speedFactor="1.0917" arrival="536.00">
        <route edges="W_in E_out"/>
    </vehicle>

    <vehicle id="flow_28_increasing_300_E_uturn.1" type="moto" depart="538.00" departLane="0" departPos="151.0147" departSpeed="8.4375" speedFactor="0.8620" arrival="562.00">
        <route edges="N_in W_out"/>
    </vehicle>

    <vehicle id="flow_20_increasing_300_N_uturn.1" type="moto" depart="538.00" departLane="0" departPos="96.1141" departSpeed="8.3395" speedFactor="1.0281" arrival="564.00">
        <route edges="N_in N_out"/>
    </vehicle>

    <vehicle id="flow_24_increasing_300_S_uturn.1" type="moto" depart="540.00" departLane="1" departPos="123.8246" departSpeed="5.0654" speedFactor="1.1421" arrival="564.00">
        <route edges="S_in S_out"/>
    </vehicle>

    <vehicle id="flow_23_increasing_300_S_right.2" type="truck" depart="543.00" departLane="0" departPos="169.4272" departSpeed="9.9639" speedFactor="1.0325" arrival="564.00">
        <route edges="N_in W_out"/>
    </vehicle>

    <vehicle id="flow_19_increasing_300_N_right.2" type="moto" depart="547.00" departLane="1" departPos="173.8291" departSpeed="0.7005" speedFactor="1.0387" arrival="568.00">
        <route edges="N_in W_out"/>
    </vehicle>

    <vehicle id="flow_22_increasing_300_S_left.2" type="moto" depart="540.00" departLane="0" departPos="29.1188" departSpeed="4.095" speedFactor="1.0039" arrival="573.00">
        <route edges="N_in E_out"/>
    </vehicle>

    <vehicle id="flow_32_increasing_300_W_uturn.1" type="car" depart="536.00" departLane="1" departPos="150.7313" departSpeed="0.5675" speedFactor="1.0323" arrival="577.00">
        <route edges="W_in W_out"/>
    </vehicle>

    <vehicle id="flow_18_increasing_300_N_left.2" type="moto" depart="539.00" departLane="1" departPos="64.7255" departSpeed="5.5578" speedFactor="1.0387" arrival="577.00">
        <route edges="E_in E_out"/>
    </vehicle>

    <vehicle id="flow_27_increasing_300_E_right.2" type="moto" depart="530.00" departLane="1" departPos="109.1161" departSpeed="2.9124" speedFactor="0.9897" arrival="578.00">
        <route edges="E_in N_out"/>
    </vehicle>

    <vehicle id="flow_31_increasing_300_W_right.2" type="truck" depart="535.00" departLane="0" departPos="65.0172" departSpeed="2.5354" speedFactor="0.9032" arrival="582.00">
        <route edges="W_in S_out"/>
    </vehicle>

    <vehicle id="flow_25_increasing_300_E_straight.5" type="truck" depart="531.00" departLane="1" departPos="5.9732" departSpeed="0.4083" speedFactor="0.9315" arrival="584.00">
        <route edges="E_in W_out"/>
    </vehicle>

    <vehicle id="flow_29_increasing_300_W_straight.5" type="truck" depart="549.00" departLane="0" departPos="109.2982" departSpeed="0.362" speedFactor="0.9784" arrival="584.00">
        <route edges="W_in E_out"/>
    </vehicle>

    <vehicle id="flow_26_increasing_300_E_left.2" type="moto" depart="549.00" departLane="1" departPos="140.3456" departSpeed="11.2455" speedFactor="1.0448" arrival="587.00">
        <route edges="E_in S_out"/>
    </vehicle>

    <vehicle id="flow_30_increasing_300_W_left.2" type="car" depart="553.00" departLane="0" departPos="175.5356" departSpeed="3.0597" speedFactor="0.9547" arrival="587.00">
        <route edges="W_in N_out"/>
    </vehicle>

    <vehicle id="flow_17_increasing_300_N_straight.5" type="moto" depart="552.00" departLane="0" departPos="34.8311" departSpeed="5.5913" speedFactor="1.0140" arrival="591.00">
        <route edges="N_in S_out"/>
    </vehicle>

    <vehicle id="flow_21_increasing_300_S_straight.5" type="truck" depart="548.00" departLane="1" departPos="67.694" departSpeed="0.1264" speedFactor="0.8196" arrival="598.00">
        <route edges="S_in N_out"/>
    </vehicle>

    <vehicle id="flow_25_increasing_300_E_straight.6" type="moto" depart="577.00" departLane="1" departPos="95.9942" departSpeed="12.5166" speedFactor="1.0047" arrival="603.00">
        <route edges="E_in W_out"/>
    </vehicle>

    <vehicle id="flow_41_increasing_600_E_straight.0" type="car" depart="600.00" departLane="1" departPos="170.5857" departSpeed="10.5403" speedFactor="0.9957" arrival="618.00">
        <route edges="E_in W_out"/>
    </vehicle>

    <vehicle id="flow_21_increasing_300_S_straight.6" type="moto" depart="597.00" departLane="1" departPos="170.8427" departSpeed="4.5071" speedFactor="1.0699" arrival="626.00">
        <route edges="S_in N_out"/>
    </vehicle>

    <vehicle id="flow_46_increasing_600_W_left.0" type="truck" depart="600.00" departLane="0" departPos="170.7684" departSpeed="5.1811" speedFactor="0.8815" arrival="627.00">
        <route edges="W_in N_out"/>
    </vehicle>

    <vehicle id="flow_33_increasing_600_N_straight.0" type="moto" depart="600.00" departLane="0" departPos="172.0661" departSpeed="10.3443" speedFactor="0.8847" arrival="629.00">
        <route edges="N_in S_out"/>
    </vehicle>

    <vehicle id="flow_35_increasing_600_N_right.0" type="car" depart="600.00" departLane="1" departPos="168.8768" departSpeed="11.4074" speedFactor="0.9394" arrival="629.00">
        <route edges="N_in W_out"/>
    </vehicle>

    <vehicle id="flow_37_increasing_600_S_straight.0" type="car" depart="600.00" departLane="1" departPos="162.1669" departSpeed="0.1065" speedFactor="0.9778" arrival="630.00">
        <route edges="S_in N_out"/>
    </vehicle>

    <vehicle id="flow_40_increasing_600_S_uturn.0" type="moto" depart="600.00" departLane="0" departPos="169.1917" departSpeed="8.7336" speedFactor="0.8917" arrival="631.00">
        <route edges="S_in S_out"/>
    </vehicle>

    <vehicle id="flow_36_increasing_600_N_uturn.0" type="moto" depart="600.00" departLane="0" departPos="161.6079" departSpeed="1.1744" speedFactor="1.0775" arrival="633.00">
        <route edges="N_in N_out"/>
    </vehicle>

    <vehicle id="flow_39_increasing_600_S_right.0" type="bus" depart="600.00" departLane="1" departPos="102.4537" departSpeed="0.5724" speedFactor="0.9554" arrival="633.00">
        <route edges="S_in E_out"/>
    </vehicle>

    <vehicle id="flow_38_increasing_600_S_left.0" type="truck" depart="600.00" departLane="1" departPos="11.9624" departSpeed="0.8637" speedFactor="1.0932" arrival="636.00">
        <route edges="S_in W_out"/>
    </vehicle>

    <vehicle id="flow_29_increasing_300_W_straight.6" type="moto" depart="599.00" departLane="0" departPos="108.1488" departSpeed="10.952" speedFactor="1.1365" arrival="638.00">
        <route edges="W_in E_out"/>
    </vehicle>

    <vehicle id="flow_47_increasing_600_W_right.0" type="moto" depart="600.00" departLane="1" departPos="167.1176" departSpeed="0.9642" speedFactor="1.1530" arrival="638.00">
        <route edges="W_in S_out"/>
    </vehicle>

    <vehicle id="flow_43_increasing_600_E_right.0" type="moto" depart="600.00" departLane="0" departPos="28.3376" departSpeed="8.6828" speedFactor="0.7657" arrival="639.00">
        <route edges="N_in W_out"/>
    </vehicle>

    <vehicle id="flow_44_increasing_600_E_uturn.0" type="moto" depart="600.00" departLane="1" departPos="21.3277" departSpeed="8.2011" speedFactor="1.1523" arrival="642.00">
        <route edges="W_in W_out"/>
    </vehicle>

    <vehicle id="flow_45_increasing_600_W_straight.0" type="moto" depart="600.00" departLane="1" departPos="38.4375" departSpeed="1.1037" speedFactor="0.9662" arrival="642.00">
        <route edges="W_in E_out"/>
    </vehicle>

    <vehicle id="flow_48_increasing_600_W_uturn.0" type="moto" depart="600.00" departLane="0" departPos="98.6919" departSpeed="1.6297" speedFactor="0.9806" arrival="642.00">
        <route edges="W_in E_out"/>
    </vehicle>

    <vehicle id="flow_34_increasing_600_N_left.0" type="moto" depart="600.00" departLane="0" departPos="3.1111" departSpeed="8.0265" speedFactor="0.9556" arrival="644.00">
        <route edges="W_in E_out"/>
    </vehicle>

    <vehicle id="flow_42_increasing_600_E_left.0" type="moto" depart="600.00" departLane="0" departPos="128.7404" departSpeed="3.1031" speedFactor="0.8543" arrival="649.00">
        <route edges="E_in S_out"/>
    </vehicle>

    <vehicle id="flow_33_increasing_600_N_straight.1" type="moto" depart="637.00" departLane="1" departPos="50.8725" departSpeed="9.9928" speedFactor="0.8416" arrival="669.00">
        <route edges="N_in S_out"/>
    </vehicle>

    <vehicle id="flow_37_increasing_600_S_straight.1" type="moto" depart="637.00" departLane="1" departPos="43.1771" departSpeed="2.8857" speedFactor="0.8756" arrival="669.00">
        <route edges="S_in N_out"/>
    </vehicle>

    <vehicle id="flow_41_increasing_600_E_straight.1" type="moto" depart="637.00" departLane="0" departPos="114.397" departSpeed="14.5024" speedFactor="1.0747" arrival="685.00">
        <route edges="E_in W_out"/>
    </vehicle>

    <vehicle id="flow_45_increasing_600_W_straight.1" type="moto" depart="637.00" departLane="1" departPos="120.4896" departSpeed="13.0373" speedFactor="0.9471" arrival="687.00">
        <route edges="W_in E_out"/>
    </vehicle>

    <vehicle id="flow_41_increasing_600_E_straight.2" type="bus" depart="674.00" departLane="0" departPos="27.7577" departSpeed="10.9993" speedFactor="0.9363" arrival="704.00">
        <route edges="E_in W_out"/>
    </vehicle>

    <vehicle id="flow_37_increasing_600_S_straight.2" type="truck" depart="673.00" departLane="1" departPos="0.9771" departSpeed="8.3058" speedFactor="0.9700" arrival="710.00">
        <route edges="S_in N_out"/>
    </vehicle>

    <vehicle id="flow_33_increasing_600_N_straight.2" type="bus" depart="674.00" departLane="1" departPos="138.898" departSpeed="12.373" speedFactor="1.0217" arrival="713.00">
        <route edges="N_in S_out"/>
    </vehicle>

    <vehicle id="flow_35_increasing_600_N_right.1" type="moto" depart="697.00" departLane="0" departPos="188.0912" departSpeed="7.5189" speedFactor="1.2172" arrival="713.00">
        <route edges="N_in W_out"/>
    </vehicle>

    <vehicle id="flow_43_increasing_600_E_right.1" type="moto" depart="692.00" departLane="0" departPos="100.2317" departSpeed="9.573" speedFactor="0.9174" arrival="719.00">
        <route edges="N_in W_out"/>
    </vehicle>

    <vehicle id="flow_34_increasing_600_N_left.1" type="car" depart="692.00" departLane="0" departPos="122.1483" departSpeed="0.7482" speedFactor="1.0262" arrival="722.00">
        <route edges="W_in E_out"/>
    </vehicle>

    <vehicle id="flow_45_increasing_600_W_straight.2" type="truck" depart="674.00" departLane="1" departPos="22.618" departSpeed="0.2023" speedFactor="1.0167" arrival="726.00">
        <route edges="W_in E_out"/>
    </vehicle>

    <vehicle id="flow_47_increasing_600_W_right.1" type="moto" depart="695.00" departLane="0" departPos="98.4033" departSpeed="5.317" speedFactor="0.8950" arrival="728.00">
        <route edges="W_in S_out"/>
    </vehicle>
