<?xml version="1.0" encoding="UTF-8"?>

<!-- generated on 2025-12-09 22:52:07 by Eclipse SUMO sumo Version 1.18.0
<configuration xmlns:xsi="http://www.w3.org/2001/XMLSchema-instance" xsi:noNamespaceSchemaLocation="http://sumo.dlr.de/xsd/sumoConfiguration.xsd">

    <input>
        <net-file value="/workspace/nets/60p2k/net.net.xml"/>
        <route-files value="/workspace/nets/60p2k/route_temp_612_137971484654080_15553294.rou.xml"/>
    </input>

    <output>
        <summary-output value="results/summary_ep_4.xml"/>
        <tripinfo-output value="results/tripinfo_ep_4.xml"/>
        <vehroute-output value="results/vehroute_ep_4.xml"/>
    </output>

    <time>
        <begin value="0"/>
    </time>

    <report>
        <verbose value="true"/>
        <no-step-log value="true"/>
    </report>

    <traci_server>
        <remote-port value="46773"/>
    </traci_server>

    <gui_only>
        <gui-settings-file value="/workspace/nets/60p2k/gui-settings.xml"/>
        <quit-on-end value="true"/>
    </gui_only>

</configuration>
-->

<tripinfos xmlns:xsi="http://www.w3.org/2001/XMLSchema-instance" xsi:noNamespaceSchemaLocation="http://sumo.dlr.de/xsd/tripinfo_file.xsd">
    <tripinfo id="flow_12_phase1_E_uturn.0" depart="0.00" departLane="N_in_0" departPos="129.89" departSpeed="13.76" departDelay="0.00" arrival="22.00" arrivalLane="W_out_0" arrivalPos="189.60" arrivalSpeed="14.08" duration="22.00" routeLength="258.34" waitingTime="0.00" waitingCount="0" stopTime="0.00" timeLoss="2.98" rerouteNo="0" devices="vehroute_flow_12_phase1_E_uturn.0 tripinfo_flow_12_phase1_E_uturn.0" vType="moto" speedFactor="1.03" vaporized=""/>
    <tripinfo id="flow_3_phase1_N_right.0" depart="0.00" departLane="N_in_0" departPos="103.38" departSpeed="3.75" departDelay="0.00" arrival="24.00" arrivalLane="W_out_0" arrivalPos="189.60" arrivalSpeed="14.84" duration="24.00" routeLength="284.85" waitingTime="0.00" waitingCount="0" stopTime="0.00" timeLoss="4.60" rerouteNo="0" devices="vehroute_flow_3_phase1_N_right.0 tripinfo_flow_3_phase1_N_right.0" vType="car" speedFactor="1.09" vaporized=""/>
    <tripinfo id="flow_8_phase1_S_uturn.0" depart="0.00" departLane="S_in_0" departPos="120.11" departSpeed="4.48" departDelay="0.00" arrival="24.00" arrivalLane="S_out_1" arrivalPos="189.60" arrivalSpeed="13.35" duration="24.00" routeLength="263.76" waitingTime="0.00" waitingCount="0" stopTime="0.00" timeLoss="4.88" rerouteNo="0" devices="vehroute_flow_8_phase1_S_uturn.0 tripinfo_flow_8_phase1_S_uturn.0" vType="moto" speedFactor="1.05" vaporized=""/>
    <tripinfo id="flow_5_phase1_S_straight.0" depart="0.00" departLane="S_in_1" departPos="107.37" departSpeed="7.21" departDelay="0.00" arrival="25.00" arrivalLane="N_out_1" arrivalPos="189.60" arrivalSpeed="15.67" duration="25.00" routeLength="292.63" waitingTime="0.00" waitingCount="0" stopTime="0.00" timeLoss="5.97" rerouteNo="0" devices="vehroute_flow_5_phase1_S_straight.0 tripinfo_flow_5_phase1_S_straight.0" vType="moto" speedFactor="1.15" vaporized=""/>
    <tripinfo id="flow_6_phase1_S_left.0" depart="0.00" departLane="S_in_1" departPos="166.01" departSpeed="0.74" departDelay="0.00" arrival="25.00" arrivalLane="W_out_1" arrivalPos="189.60" arrivalSpeed="12.05" duration="25.00" routeLength="232.54" waitingTime="0.00" waitingCount="0" stopTime="0.00" timeLoss="4.32" rerouteNo="0" devices="vehroute_flow_6_phase1_S_left.0 tripinfo_flow_6_phase1_S_left.0" vType="moto" speedFactor="0.88" vaporized=""/>
    <tripinfo id="flow_14_phase1_W_left.0" depart="0.00" departLane="S_in_1" departPos="50.07" departSpeed="13.54" departDelay="0.00" arrival="28.00" arrivalLane="E_out_0" arrivalPos="189.60" arrivalSpeed="12.95" duration="28.00" routeLength="338.16" waitingTime="0.00" waitingCount="0" stopTime="0.00" timeLoss="3.31" rerouteNo="0" devices="vehroute_flow_14_phase1_W_left.0 tripinfo_flow_14_phase1_W_left.0" vType="moto" speedFactor="1.01" vaporized=""/>
    <tripinfo id="flow_4_phase1_N_uturn.0" depart="0.00" departLane="N_in_1" departPos="127.60" departSpeed="0.08" departDelay="0.00" arrival="31.00" arrivalLane="N_out_1" arrivalPos="189.60" arrivalSpeed="12.70" duration="31.00" routeLength="256.27" waitingTime="1.00" waitingCount="1" stopTime="0.00" timeLoss="9.89" rerouteNo="0" devices="vehroute_flow_4_phase1_N_uturn.0 tripinfo_flow_4_phase1_N_uturn.0" vType="car" speedFactor="0.92" vaporized=""/>
    <tripinfo id="flow_16_phase1_W_uturn.0" depart="0.00" departLane="W_in_0" departPos="126.68" departSpeed="11.71" departDelay="0.00" arrival="37.00" arrivalLane="W_out_1" arrivalPos="189.60" arrivalSpeed="14.32" duration="37.00" routeLength="257.19" waitingTime="10.00" waitingCount="1" stopTime="0.00" timeLoss="17.75" rerouteNo="0" devices="vehroute_flow_16_phase1_W_uturn.0 tripinfo_flow_16_phase1_W_uturn.0" vType="moto" speedFactor="1.04" vaporized=""/>
    <tripinfo id="flow_15_phase1_W_right.0" depart="0.00" departLane="W_in_1" departPos="108.38" departSpeed="1.98" departDelay="0.00" arrival="39.00" arrivalLane="S_out_0" arrivalPos="189.60" arrivalSpeed="11.14" duration="39.00" routeLength="279.85" waitingTime="5.00" waitingCount="1" stopTime="0.00" timeLoss="13.67" rerouteNo="0" devices="vehroute_flow_15_phase1_W_right.0 tripinfo_flow_15_phase1_W_right.0" vType="moto" speedFactor="0.85" vaporized=""/>
    <tripinfo id="flow_13_phase1_W_straight.1" depart="19.00" departLane="W_in_1" departPos="121.65" departSpeed="2.86" departDelay="0.84" arrival="40.00" arrivalLane="E_out_1" arrivalPos="189.60" arrivalSpeed="14.97" duration="21.00" routeLength="278.35" waitingTime="0.00" waitingCount="0" stopTime="0.00" timeLoss="2.82" rerouteNo="0" devices="vehroute_flow_13_phase1_W_straight.1 tripinfo_flow_13_phase1_W_straight.1" vType="car" speedFactor="1.12" vaporized=""/>
    <tripinfo id="flow_9_phase1_E_straight.0" depart="0.00" departLane="E_in_0" departPos="168.29" departSpeed="9.83" departDelay="0.00" arrival="41.00" arrivalLane="W_out_0" arrivalPos="189.60" arrivalSpeed="12.16" duration="41.00" routeLength="231.71" waitingTime="12.00" waitingCount="1" stopTime="0.00" timeLoss="22.03" rerouteNo="0" devices="vehroute_flow_9_phase1_E_straight.0 tripinfo_flow_9_phase1_E_straight.0" vType="truck" speedFactor="0.90" vaporized=""/>
    <tripinfo id="flow_13_phase1_W_straight.0" depart="0.00" departLane="W_in_0" departPos="23.77" departSpeed="1.48" departDelay="0.00" arrival="41.00" arrivalLane="E_out_0" arrivalPos="189.60" arrivalSpeed="11.05" duration="41.00" routeLength="376.23" waitingTime="0.00" waitingCount="0" stopTime="0.00" timeLoss="7.60" rerouteNo="0" devices="vehroute_flow_13_phase1_W_straight.0 tripinfo_flow_13_phase1_W_straight.0" vType="container" speedFactor="0.82" vaporized=""/>
    <tripinfo id="flow_11_phase1_E_right.0" depart="0.00" departLane="E_in_1" departPos="144.95" departSpeed="4.02" departDelay="0.00" arrival="42.00" arrivalLane="N_out_0" arrivalPos="189.60" arrivalSpeed="12.61" duration="42.00" routeLength="243.28" waitingTime="12.00" waitingCount="1" stopTime="0.00" timeLoss="22.92" rerouteNo="0" devices="vehroute_flow_11_phase1_E_right.0 tripinfo_flow_11_phase1_E_right.0" vType="bus" speedFactor="0.96" vaporized=""/>
    <tripinfo id="flow_10_phase1_E_left.0" depart="0.00" departLane="E_in_0" departPos="44.88" departSpeed="7.69" departDelay="0.00" arrival="50.00" arrivalLane="S_out_1" arrivalPos="189.60" arrivalSpeed="13.38" duration="50.00" routeLength="353.67" waitingTime="6.00" waitingCount="2" stopTime="0.00" timeLoss="23.49" rerouteNo="0" devices="vehroute_flow_10_phase1_E_left.0 tripinfo_flow_10_phase1_E_left.0" vType="truck" speedFactor="1.02" vaporized=""/>
    <tripinfo id="flow_5_phase1_S_straight.1" depart="18.00" departLane="S_in_0" departPos="131.13" departSpeed="9.54" departDelay="0.05" arrival="50.00" arrivalLane="N_out_1" arrivalPos="189.60" arrivalSpeed="15.28" duration="32.00" routeLength="268.87" waitingTime="4.00" waitingCount="1" stopTime="0.00" timeLoss="14.44" rerouteNo="0" devices="vehroute_flow_5_phase1_S_straight.1 tripinfo_flow_5_phase1_S_straight.1" vType="moto" speedFactor="1.16" vaporized=""/>
    <tripinfo id="flow_2_phase1_N_left.0" depart="0.00" departLane="N_in_1" departPos="8.27" departSpeed="8.33" departDelay="0.00" arrival="55.00" arrivalLane="E_out_1" arrivalPos="189.60" arrivalSpeed="13.94" duration="55.00" routeLength="390.28" waitingTime="18.00" waitingCount="2" stopTime="0.00" timeLoss="25.79" rerouteNo="0" devices="vehroute_flow_2_phase1_N_left.0 tripinfo_flow_2_phase1_N_left.0" vType="moto" speedFactor="1.02" vaporized=""/>
    <tripinfo id="flow_1_phase1_N_straight.1" depart="19.00" departLane="N_in_1" departPos="31.93" departSpeed="9.28" departDelay="0.66" arrival="55.00" arrivalLane="S_out_1" arrivalPos="189.60" arrivalSpeed="15.37" duration="36.00" routeLength="368.07" waitingTime="3.00" waitingCount="1" stopTime="0.00" timeLoss="12.44" rerouteNo="0" devices="vehroute_flow_1_phase1_N_straight.1 tripinfo_flow_1_phase1_N_straight.1" vType="moto" speedFactor="1.19" vaporized=""/>
    <tripinfo id="flow_1_phase1_N_straight.0" depart="0.00" departLane="N_in_0" departPos="8.62" departSpeed="8.51" departDelay="0.00" arrival="56.00" arrivalLane="S_out_0" arrivalPos="189.60" arrivalSpeed="11.70" duration="56.00" routeLength="391.38" waitingTime="11.00" waitingCount="1" stopTime="0.00" timeLoss="22.62" rerouteNo="0" devices="vehroute_flow_1_phase1_N_straight.0 tripinfo_flow_1_phase1_N_straight.0" vType="bus" speedFactor="0.86" vaporized=""/>
    <tripinfo id="flow_7_phase1_S_right.0" depart="0.00" departLane="S_in_0" departPos="8.76" departSpeed="8.07" departDelay="0.00" arrival="58.00" arrivalLane="E_out_0" arrivalPos="189.60" arrivalSpeed="11.69" duration="58.00" routeLength="379.47" waitingTime="12.00" waitingCount="1" stopTime="0.00" timeLoss="24.79" rerouteNo="0" devices="vehroute_flow_7_phase1_S_right.0 tripinfo_flow_7_phase1_S_right.0" vType="container" speedFactor="0.85" vaporized=""/>
    <tripinfo id="flow_13_phase1_W_straight.2" depart="37.00" departLane="W_in_1" departPos="107.53" departSpeed="1.11" departDelay="0.67" arrival="63.00" arrivalLane="E_out_0" arrivalPos="189.60" arrivalSpeed="12.19" duration="26.00" routeLength="292.47" waitingTime="0.00" waitingCount="0" stopTime="0.00" timeLoss="3.18" rerouteNo="0" devices="vehroute_flow_13_phase1_W_straight.2 tripinfo_flow_13_phase1_W_straight.2" vType="moto" speedFactor="0.93" vaporized=""/>
    <tripinfo id="flow_9_phase1_E_straight.1" depart="18.00" departLane="E_in_1" departPos="58.36" departSpeed="11.64" departDelay="0.52" arrival="65.00" arrivalLane="W_out_0" arrivalPos="189.60" arrivalSpeed="12.07" duration="47.00" routeLength="341.64" waitingTime="10.00" waitingCount="1" stopTime="0.00" timeLoss="17.92" rerouteNo="0" devices="vehroute_flow_9_phase1_E_straight.1 tripinfo_flow_9_phase1_E_straight.1" vType="moto" speedFactor="0.87" vaporized=""/>
    <tripinfo id="flow_9_phase1_E_straight.2" depart="35.00" departLane="E_in_1" departPos="52.87" departSpeed="0.38" departDelay="0.05" arrival="65.00" arrivalLane="W_out_1" arrivalPos="189.60" arrivalSpeed="12.61" duration="30.00" routeLength="347.13" waitingTime="0.00" waitingCount="0" stopTime="0.00" timeLoss="4.26" rerouteNo="0" devices="vehroute_flow_9_phase1_E_straight.2 tripinfo_flow_9_phase1_E_straight.2" vType="moto" speedFactor="0.99" vaporized=""/>
    <tripinfo id="flow_11_phase1_E_right.1" depart="45.00" departLane="E_in_1" departPos="128.68" departSpeed="3.06" departDelay="0.91" arrival="68.00" arrivalLane="N_out_0" arrivalPos="189.60" arrivalSpeed="13.67" duration="23.00" routeLength="259.55" waitingTime="0.00" waitingCount="0" stopTime="0.00" timeLoss="4.50" rerouteNo="0" devices="vehroute_flow_11_phase1_E_right.1 tripinfo_flow_11_phase1_E_right.1" vType="moto" speedFactor="1.04" vaporized=""/>
    <tripinfo id="flow_15_phase1_W_right.1" depart="45.00" departLane="W_in_0" departPos="73.90" departSpeed="9.22" departDelay="0.44" arrival="70.00" arrivalLane="S_out_0" arrivalPos="189.60" arrivalSpeed="14.53" duration="25.00" routeLength="314.33" waitingTime="0.00" waitingCount="0" stopTime="0.00" timeLoss="3.36" rerouteNo="0" devices="vehroute_flow_15_phase1_W_right.1 tripinfo_flow_15_phase1_W_right.1" vType="moto" speedFactor="1.08" vaporized=""/>
    <tripinfo id="flow_1_phase1_N_straight.3" depart="56.00" departLane="N_in_0" departPos="148.08" departSpeed="9.64" departDelay="0.97" arrival="75.00" arrivalLane="S_out_0" arrivalPos="189.60" arrivalSpeed="13.47" duration="19.00" routeLength="251.92" waitingTime="0.00" waitingCount="0" stopTime="0.00" timeLoss="1.60" rerouteNo="0" devices="vehroute_flow_1_phase1_N_straight.3 tripinfo_flow_1_phase1_N_straight.3" vType="car" speedFactor="1.05" vaporized=""/>
    <tripinfo id="flow_5_phase1_S_straight.2" depart="36.00" departLane="S_in_1" departPos="12.70" departSpeed="12.41" departDelay="0.09" arrival="76.00" arrivalLane="N_out_0" arrivalPos="189.60" arrivalSpeed="12.23" duration="40.00" routeLength="387.30" waitingTime="3.00" waitingCount="1" stopTime="0.00" timeLoss="10.51" rerouteNo="0" devices="vehroute_flow_5_phase1_S_straight.2 tripinfo_flow_5_phase1_S_straight.2" vType="moto" speedFactor="0.96" vaporized=""/>
    <tripinfo id="flow_3_phase1_N_right.1" depart="47.00" departLane="N_in_0" departPos="166.00" departSpeed="1.28" departDelay="0.61" arrival="78.00" arrivalLane="W_out_0" arrivalPos="189.60" arrivalSpeed="11.47" duration="31.00" routeLength="222.23" waitingTime="2.00" waitingCount="1" stopTime="0.00" timeLoss="11.24" rerouteNo="0" devices="vehroute_flow_3_phase1_N_right.1 tripinfo_flow_3_phase1_N_right.1" vType="moto" speedFactor="0.88" vaporized=""/>
    <tripinfo id="flow_1_phase1_N_straight.2" depart="37.00" departLane="N_in_1" departPos="59.51" departSpeed="13.32" departDelay="0.31" arrival="81.00" arrivalLane="S_out_0" arrivalPos="189.60" arrivalSpeed="13.02" duration="44.00" routeLength="340.49" waitingTime="5.00" waitingCount="1" stopTime="0.00" timeLoss="17.80" rerouteNo="0" devices="vehroute_flow_1_phase1_N_straight.2 tripinfo_flow_1_phase1_N_straight.2" vType="bus" speedFactor="0.97" vaporized=""/>
    <tripinfo id="flow_6_phase1_S_left.1" depart="46.00" departLane="S_in_1" departPos="110.92" departSpeed="11.99" departDelay="0.60" arrival="82.00" arrivalLane="W_out_1" arrivalPos="189.60" arrivalSpeed="14.12" duration="36.00" routeLength="287.63" waitingTime="5.00" waitingCount="2" stopTime="0.00" timeLoss="15.14" rerouteNo="0" devices="vehroute_flow_6_phase1_S_left.1 tripinfo_flow_6_phase1_S_left.1" vType="moto" speedFactor="1.05" vaporized=""/>
    <tripinfo id="flow_14_phase1_W_left.1" depart="47.00" departLane="S_in_0" departPos="134.76" departSpeed="11.76" departDelay="0.22" arrival="82.00" arrivalLane="E_out_0" arrivalPos="189.60" arrivalSpeed="12.70" duration="35.00" routeLength="253.47" waitingTime="2.00" waitingCount="1" stopTime="0.00" timeLoss="14.14" rerouteNo="0" devices="vehroute_flow_14_phase1_W_left.1 tripinfo_flow_14_phase1_W_left.1" vType="container" speedFactor="0.91" vaporized=""/>
    <tripinfo id="flow_5_phase1_S_straight.3" depart="54.00" departLane="S_in_1" departPos="77.94" departSpeed="4.43" departDelay="0.14" arrival="83.00" arrivalLane="N_out_1" arrivalPos="189.60" arrivalSpeed="14.68" duration="29.00" routeLength="322.06" waitingTime="0.00" waitingCount="0" stopTime="0.00" timeLoss="7.06" rerouteNo="0" devices="vehroute_flow_5_phase1_S_straight.3 tripinfo_flow_5_phase1_S_straight.3" vType="moto" speedFactor="1.08" vaporized=""/>
    <tripinfo id="flow_2_phase1_N_left.1" depart="45.00" departLane="N_in_0" departPos="8.88" departSpeed="2.82" departDelay="0.65" arrival="86.00" arrivalLane="E_out_1" arrivalPos="189.60" arrivalSpeed="14.51" duration="41.00" routeLength="389.67" waitingTime="2.00" waitingCount="1" stopTime="0.00" timeLoss="15.31" rerouteNo="0" devices="vehroute_flow_2_phase1_N_left.1 tripinfo_flow_2_phase1_N_left.1" vType="moto" speedFactor="1.12" vaporized=""/>
    <tripinfo id="flow_7_phase1_S_right.1" depart="45.00" departLane="S_in_1" departPos="66.71" departSpeed="7.87" departDelay="0.90" arrival="88.00" arrivalLane="E_out_0" arrivalPos="189.60" arrivalSpeed="10.71" duration="43.00" routeLength="321.52" waitingTime="0.00" waitingCount="0" stopTime="0.00" timeLoss="12.50" rerouteNo="0" devices="vehroute_flow_7_phase1_S_right.1 tripinfo_flow_7_phase1_S_right.1" vType="container" speedFactor="0.78" vaporized=""/>
    <tripinfo id="flow_13_phase1_W_straight.3" depart="55.00" departLane="W_in_0" departPos="19.25" departSpeed="11.19" departDelay="0.51" arrival="88.00" arrivalLane="E_out_1" arrivalPos="189.60" arrivalSpeed="15.50" duration="33.00" routeLength="380.75" waitingTime="0.00" waitingCount="0" stopTime="0.00" timeLoss="8.41" rerouteNo="0" devices="vehroute_flow_13_phase1_W_straight.3 tripinfo_flow_13_phase1_W_straight.3" vType="moto" speedFactor="1.20" vaporized=""/>
    <tripinfo id="flow_9_phase1_E_straight.3" depart="53.00" departLane="E_in_1" departPos="108.76" departSpeed="10.34" departDelay="0.57" arrival="94.00" arrivalLane="W_out_0" arrivalPos="189.60" arrivalSpeed="11.69" duration="41.00" routeLength="291.24" waitingTime="6.00" waitingCount="1" stopTime="0.00" timeLoss="16.39" rerouteNo="0" devices="vehroute_flow_9_phase1_E_straight.3 tripinfo_flow_9_phase1_E_straight.3" vType="bus" speedFactor="0.85" vaporized=""/>
    <tripinfo id="flow_10_phase1_E_left.1" depart="46.00" departLane="E_in_1" departPos="4.52" departSpeed="3.89" departDelay="0.54" arrival="100.00" arrivalLane="S_out_0" arrivalPos="189.60" arrivalSpeed="9.98" duration="54.00" routeLength="394.03" waitingTime="3.00" waitingCount="2" stopTime="0.00" timeLoss="15.24" rerouteNo="0" devices="vehroute_flow_10_phase1_E_left.1 tripinfo_flow_10_phase1_E_left.1" vType="truck" speedFactor="0.77" vaporized=""/>
    <tripinfo id="flow_1_phase1_N_straight.4" depart="74.00" departLane="N_in_0" departPos="185.47" departSpeed="3.56" departDelay="0.62" arrival="106.00" arrivalLane="S_out_0" arrivalPos="189.60" arrivalSpeed="12.60" duration="32.00" routeLength="214.53" waitingTime="6.00" waitingCount="1" stopTime="0.00" timeLoss="14.62" rerouteNo="0" devices="vehroute_flow_1_phase1_N_straight.4 tripinfo_flow_1_phase1_N_straight.4" vType="truck" speedFactor="0.92" vaporized=""/>
    <tripinfo id="flow_5_phase1_S_straight.4" depart="72.00" departLane="S_in_0" departPos="167.23" departSpeed="1.90" departDelay="0.18" arrival="109.00" arrivalLane="N_out_0" arrivalPos="189.60" arrivalSpeed="13.16" duration="37.00" routeLength="232.77" waitingTime="3.00" waitingCount="1" stopTime="0.00" timeLoss="19.52" rerouteNo="0" devices="vehroute_flow_5_phase1_S_straight.4 tripinfo_flow_5_phase1_S_straight.4" vType="container" speedFactor="0.97" vaporized=""/>
    <tripinfo id="flow_9_phase1_E_straight.5" depart="88.00" departLane="E_in_1" departPos="171.48" departSpeed="2.19" departDelay="0.62" arrival="114.00" arrivalLane="W_out_1" arrivalPos="189.60" arrivalSpeed="13.21" duration="26.00" routeLength="228.52" waitingTime="2.00" waitingCount="1" stopTime="0.00" timeLoss="10.01" rerouteNo="0" devices="vehroute_flow_9_phase1_E_straight.5 tripinfo_flow_9_phase1_E_straight.5" vType="moto" speedFactor="1.03" vaporized=""/>
    <tripinfo id="flow_11_phase1_E_right.2" depart="89.00" departLane="E_in_1" departPos="108.70" departSpeed="9.05" departDelay="0.82" arrival="117.00" arrivalLane="N_out_0" arrivalPos="189.60" arrivalSpeed="15.10" duration="28.00" routeLength="279.53" waitingTime="0.00" waitingCount="0" stopTime="0.00" timeLoss="8.33" rerouteNo="0" devices="vehroute_flow_11_phase1_E_right.2 tripinfo_flow_11_phase1_E_right.2" vType="emergency" speedFactor="1.10" vaporized=""/>
    <tripinfo id="flow_15_phase1_W_right.2" depart="90.00" departLane="W_in_1" departPos="89.17" departSpeed="11.39" departDelay="0.87" arrival="118.00" arrivalLane="S_out_0" arrivalPos="189.60" arrivalSpeed="13.39" duration="28.00" routeLength="299.06" waitingTime="0.00" waitingCount="0" stopTime="0.00" timeLoss="6.43" rerouteNo="0" devices="vehroute_flow_15_phase1_W_right.2 tripinfo_flow_15_phase1_W_right.2" vType="moto" speedFactor="1.03" vaporized=""/>
    <tripinfo id="flow_9_phase1_E_straight.4" depart="70.00" departLane="E_in_1" departPos="23.57" departSpeed="9.43" departDelay="0.10" arrival="119.00" arrivalLane="W_out_0" arrivalPos="189.60" arrivalSpeed="12.54" duration="49.00" routeLength="376.43" waitingTime="10.00" waitingCount="1" stopTime="0.00" timeLoss="20.15" rerouteNo="0" devices="vehroute_flow_9_phase1_E_straight.4 tripinfo_flow_9_phase1_E_straight.4" vType="bus" speedFactor="0.95" vaporized=""/>
    <tripinfo id="flow_13_phase1_W_straight.4" depart="73.00" departLane="W_in_0" departPos="8.08" departSpeed="5.80" departDelay="0.34" arrival="120.00" arrivalLane="E_out_0" arrivalPos="189.60" arrivalSpeed="11.65" duration="47.00" routeLength="391.92" waitingTime="3.00" waitingCount="1" stopTime="0.00" timeLoss="14.05" rerouteNo="0" devices="vehroute_flow_13_phase1_W_straight.4 tripinfo_flow_13_phase1_W_straight.4" vType="bus" speedFactor="0.87" vaporized=""/>
    <tripinfo id="flow_10_phase1_E_left.2" depart="91.00" departLane="E_in_1" departPos="21.68" departSpeed="6.53" departDelay="0.07" arrival="121.00" arrivalLane="S_out_1" arrivalPos="189.60" arrivalSpeed="15.29" duration="30.00" routeLength="376.87" waitingTime="0.00" waitingCount="0" stopTime="0.00" timeLoss="5.00" rerouteNo="0" devices="vehroute_flow_10_phase1_E_left.2 tripinfo_flow_10_phase1_E_left.2" vType="moto" speedFactor="1.14" vaporized=""/>
    <tripinfo id="flow_13_phase1_W_straight.5" depart="91.00" departLane="W_in_1" departPos="74.60" departSpeed="11.83" departDelay="0.18" arrival="122.00" arrivalLane="E_out_0" arrivalPos="189.60" arrivalSpeed="13.94" duration="31.00" routeLength="325.40" waitingTime="0.00" waitingCount="0" stopTime="0.00" timeLoss="8.10" rerouteNo="0" devices="vehroute_flow_13_phase1_W_straight.5 tripinfo_flow_13_phase1_W_straight.5" vType="moto" speedFactor="1.04" vaporized=""/>
    <tripinfo id="flow_16_phase1_W_uturn.1" depart="90.00" departLane="W_in_1" departPos="124.88" departSpeed="0.01" departDelay="0.15" arrival="125.00" arrivalLane="W_out_1" arrivalPos="189.60" arrivalSpeed="11.82" duration="35.00" routeLength="258.99" waitingTime="0.00" waitingCount="0" stopTime="0.00" timeLoss="12.19" rerouteNo="0" devices="vehroute_flow_16_phase1_W_uturn.1 tripinfo_flow_16_phase1_W_uturn.1" vType="truck" speedFactor="0.89" vaporized=""/>
    <tripinfo id="flow_7_phase1_S_right.2" depart="89.00" departLane="S_in_0" departPos="71.94" departSpeed="4.41" departDelay="0.80" arrival="127.00" arrivalLane="E_out_0" arrivalPos="189.60" arrivalSpeed="14.69" duration="38.00" routeLength="316.29" waitingTime="6.00" waitingCount="1" stopTime="0.00" timeLoss="17.02" rerouteNo="0" devices="vehroute_flow_7_phase1_S_right.2 tripinfo_flow_7_phase1_S_right.2" vType="moto" speedFactor="1.14" vaporized=""/>
    <tripinfo id="flow_12_phase1_E_uturn.1" depart="90.00" departLane="N_in_0" departPos="31.76" departSpeed="11.77" departDelay="0.68" arrival="127.00" arrivalLane="W_out_0" arrivalPos="189.60" arrivalSpeed="11.84" duration="37.00" routeLength="356.47" waitingTime="2.00" waitingCount="1" stopTime="0.00" timeLoss="9.16" rerouteNo="0" devices="vehroute_flow_12_phase1_E_uturn.1 tripinfo_flow_12_phase1_E_uturn.1" vType="moto" speedFactor="0.94" vaporized=""/>
    <tripinfo id="flow_5_phase1_S_straight.5" depart="90.00" departLane="S_in_0" departPos="104.14" departSpeed="12.50" departDelay="0.23" arrival="128.00" arrivalLane="N_out_0" arrivalPos="189.60" arrivalSpeed="12.32" duration="38.00" routeLength="295.86" waitingTime="7.00" waitingCount="1" stopTime="0.00" timeLoss="15.31" rerouteNo="0" devices="vehroute_flow_5_phase1_S_straight.5 tripinfo_flow_5_phase1_S_straight.5" vType="moto" speedFactor="0.95" vaporized=""/>
    <tripinfo id="flow_8_phase1_S_uturn.1" depart="90.00" departLane="S_in_1" departPos="168.21" departSpeed="11.63" departDelay="0.53" arrival="129.00" arrivalLane="S_out_1" arrivalPos="189.60" arrivalSpeed="11.69" duration="39.00" routeLength="215.66" waitingTime="14.00" waitingCount="1" stopTime="0.00" timeLoss="20.22" rerouteNo="0" devices="vehroute_flow_8_phase1_S_uturn.1 tripinfo_flow_8_phase1_S_uturn.1" vType="moto" speedFactor="0.89" vaporized=""/>
    <tripinfo id="flow_3_phase1_N_right.2" depart="93.00" departLane="N_in_1" departPos="39.34" departSpeed="5.11" departDelay="0.22" arrival="129.00" arrivalLane="W_out_0" arrivalPos="189.60" arrivalSpeed="14.51" duration="36.00" routeLength="348.89" waitingTime="1.00" waitingCount="1" stopTime="0.00" timeLoss="11.76" rerouteNo="0" devices="vehroute_flow_3_phase1_N_right.2 tripinfo_flow_3_phase1_N_right.2" vType="moto" speedFactor="1.10" vaporized=""/>
    <tripinfo id="flow_4_phase1_N_uturn.1" depart="90.00" departLane="N_in_0" departPos="121.56" departSpeed="11.19" departDelay="0.37" arrival="130.00" arrivalLane="N_out_1" arrivalPos="189.60" arrivalSpeed="12.46" duration="40.00" routeLength="262.31" waitingTime="10.00" waitingCount="1" stopTime="0.00" timeLoss="18.65" rerouteNo="0" devices="vehroute_flow_4_phase1_N_uturn.1 tripinfo_flow_4_phase1_N_uturn.1" vType="truck" speedFactor="0.94" vaporized=""/>
    <tripinfo id="flow_1_phase1_N_straight.5" depart="92.00" departLane="N_in_1" departPos="87.76" departSpeed="6.11" departDelay="0.28" arrival="132.00" arrivalLane="S_out_0" arrivalPos="189.60" arrivalSpeed="12.49" duration="40.00" routeLength="312.24" waitingTime="3.00" waitingCount="1" stopTime="0.00" timeLoss="14.73" rerouteNo="0" devices="vehroute_flow_1_phase1_N_straight.5 tripinfo_flow_1_phase1_N_straight.5" vType="moto" speedFactor="0.90" vaporized=""/>
    <tripinfo id="flow_14_phase1_W_left.2" depart="94.00" departLane="S_in_0" departPos="61.32" departSpeed="5.57" departDelay="0.44" arrival="132.00" arrivalLane="E_out_0" arrivalPos="189.60" arrivalSpeed="12.08" duration="38.00" routeLength="326.91" waitingTime="3.00" waitingCount="1" stopTime="0.00" timeLoss="11.03" rerouteNo="0" devices="vehroute_flow_14_phase1_W_left.2 tripinfo_flow_14_phase1_W_left.2" vType="car" speedFactor="0.90" vaporized=""/>
    <tripinfo id="flow_6_phase1_S_left.2" depart="91.00" departLane="S_in_1" departPos="92.22" departSpeed="0.17" departDelay="0.20" arrival="134.00" arrivalLane="W_out_1" arrivalPos="189.60" arrivalSpeed="13.97" duration="43.00" routeLength="306.33" waitingTime="9.00" waitingCount="2" stopTime="0.00" timeLoss="21.47" rerouteNo="0" devices="vehroute_flow_6_phase1_S_left.2 tripinfo_flow_6_phase1_S_left.2" vType="moto" speedFactor="1.07" vaporized=""/>
    <tripinfo id="flow_5_phase1_S_straight.6" depart="108.00" departLane="S_in_1" departPos="109.89" departSpeed="2.41" departDelay="0.28" arrival="135.00" arrivalLane="N_out_1" arrivalPos="189.60" arrivalSpeed="14.57" duration="27.00" routeLength="290.11" waitingTime="0.00" waitingCount="0" stopTime="0.00" timeLoss="7.09" rerouteNo="0" devices="vehroute_flow_5_phase1_S_straight.6 tripinfo_flow_5_phase1_S_straight.6" vType="moto" speedFactor="1.10" vaporized=""/>
    <tripinfo id="flow_2_phase1_N_left.2" depart="89.00" departLane="N_in_0" departPos="81.69" departSpeed="9.19" departDelay="0.30" arrival="139.00" arrivalLane="E_out_1" arrivalPos="189.60" arrivalSpeed="13.48" duration="50.00" routeLength="316.86" waitingTime="13.00" waitingCount="2" stopTime="0.00" timeLoss="25.65" rerouteNo="0" devices="vehroute_flow_2_phase1_N_left.2 tripinfo_flow_2_phase1_N_left.2" vType="moto" speedFactor="1.00" vaporized=""/>
    <tripinfo id="flow_9_phase1_E_straight.6" depart="105.00" departLane="E_in_0" departPos="69.49" departSpeed="6.31" departDelay="0.14" arrival="140.00" arrivalLane="W_out_0" arrivalPos="189.60" arrivalSpeed="14.18" duration="35.00" routeLength="330.51" waitingTime="3.00" waitingCount="1" stopTime="0.00" timeLoss="11.66" rerouteNo="0" devices="vehroute_flow_9_phase1_E_straight.6 tripinfo_flow_9_phase1_E_straight.6" vType="moto" speedFactor="1.02" vaporized=""/>
    <tripinfo id="flow_13_phase1_W_straight.6" depart="109.00" departLane="W_in_1" departPos="21.74" departSpeed="10.71" departDelay="0.02" arrival="141.00" arrivalLane="E_out_0" arrivalPos="189.60" arrivalSpeed="13.26" duration="32.00" routeLength="378.26" waitingTime="0.00" waitingCount="0" stopTime="0.00" timeLoss="3.43" rerouteNo="0" devices="vehroute_flow_13_phase1_W_straight.6 tripinfo_flow_13_phase1_W_straight.6" vType="car" speedFactor="0.98" vaporized=""/>
    <tripinfo id="flow_13_phase1_W_straight.7" depart="128.00" departLane="W_in_0" departPos="178.36" departSpeed="2.65" departDelay="0.85" arrival="151.00" arrivalLane="E_out_0" arrivalPos="189.60" arrivalSpeed="10.01" duration="23.00" routeLength="221.64" waitingTime="0.00" waitingCount="0" stopTime="0.00" timeLoss="2.65" rerouteNo="0" devices="vehroute_flow_13_phase1_W_straight.7 tripinfo_flow_13_phase1_W_straight.7" vType="moto" speedFactor="0.80" vaporized=""/>
    <tripinfo id="flow_1_phase1_N_straight.7" depart="129.00" departLane="N_in_1" departPos="107.80" departSpeed="13.56" departDelay="0.59" arrival="151.00" arrivalLane="S_out_1" arrivalPos="189.60" arrivalSpeed="14.30" duration="22.00" routeLength="292.20" waitingTime="0.00" waitingCount="0" stopTime="0.00" timeLoss="1.29" rerouteNo="0" devices="vehroute_flow_1_phase1_N_straight.7 tripinfo_flow_1_phase1_N_straight.7" vType="moto" speedFactor="1.06" vaporized=""/>
    <tripinfo id="flow_5_phase1_S_straight.7" depart="126.00" departLane="S_in_1" departPos="88.32" departSpeed="10.69" departDelay="0.32" arrival="153.00" arrivalLane="N_out_0" arrivalPos="189.60" arrivalSpeed="12.40" duration="27.00" routeLength="311.68" waitingTime="0.00" waitingCount="0" stopTime="0.00" timeLoss="1.71" rerouteNo="0" devices="vehroute_flow_5_phase1_S_straight.7 tripinfo_flow_5_phase1_S_straight.7" vType="bus" speedFactor="0.90" vaporized=""/>