<?xml version="1.0" encoding="UTF-8"?>

<!-- generated on 2025-12-09 22:50:54 by Eclipse SUMO sumo Version 1.18.0
<configuration xmlns:xsi="http://www.w3.org/2001/XMLSchema-instance" xsi:noNamespaceSchemaLocation="http://sumo.dlr.de/xsd/sumoConfiguration.xsd">

    <input>
        <net-file value="/workspace/nets/60p2k/net.net.xml"/>
        <route-files value="/workspace/nets/60p2k/route_temp_612_137971484654080_15553294.rou.xml"/>
    </input>

    <output>
        <summary-output value="results/summary_ep_1.xml"/>
        <tripinfo-output value="results/tripinfo_ep_1.xml"/>
        <vehroute-output value="results/vehroute_ep_1.xml"/>
    </output>

    <time>
        <begin value="0"/>
    </time>

    <report>
        <verbose value="true"/>
        <no-step-log value="true"/>
    </report>

    <traci_server>
        <remote-port value="57695"/>
    </traci_server>

    <gui_only>
        <gui-settings-file value="/workspace/nets/60p2k/gui-settings.xml"/>
        <quit-on-end value="true"/>
    </gui_only>

</configuration>
-->

<tripinfos xmlns:xsi="http://www.w3.org/2001/XMLSchema-instance" xsi:noNamespaceSchemaLocation="http://sumo.dlr.de/xsd/tripinfo_file.xsd">
    <tripinfo id="flow_3_phase1_N_right.0" depart="0.00" departLane="N_in_0" departPos="103.38" departSpeed="3.75" departDelay="0.00" arrival="24.00" arrivalLane="W_out_0" arrivalPos="189.60" arrivalSpeed="14.93" duration="24.00" routeLength="284.85" waitingTime="0.00" waitingCount="0" stopTime="0.00" timeLoss="4.55" rerouteNo="0" devices="vehroute_flow_3_phase1_N_right.0 tripinfo_flow_3_phase1_N_right.0" vType="car" speedFactor="1.09" vaporized=""/>
    <tripinfo id="flow_8_phase1_S_uturn.0" depart="0.00" departLane="S_in_0" departPos="120.11" departSpeed="4.48" departDelay="0.00" arrival="24.00" arrivalLane="S_out_1" arrivalPos="189.60" arrivalSpeed="13.35" duration="24.00" routeLength="263.76" waitingTime="0.00" waitingCount="0" stopTime="0.00" timeLoss="4.86" rerouteNo="0" devices="vehroute_flow_8_phase1_S_uturn.0 tripinfo_flow_8_phase1_S_uturn.0" vType="moto" speedFactor="1.05" vaporized=""/>
    <tripinfo id="flow_5_phase1_S_straight.0" depart="0.00" departLane="S_in_1" departPos="107.37" departSpeed="7.21" departDelay="0.00" arrival="25.00" arrivalLane="N_out_1" arrivalPos="189.60" arrivalSpeed="15.67" duration="25.00" routeLength="292.63" waitingTime="0.00" waitingCount="0" stopTime="0.00" timeLoss="6.39" rerouteNo="0" devices="vehroute_flow_5_phase1_S_straight.0 tripinfo_flow_5_phase1_S_straight.0" vType="moto" speedFactor="1.15" vaporized=""/>
    <tripinfo id="flow_6_phase1_S_left.0" depart="0.00" departLane="S_in_1" departPos="166.01" departSpeed="0.74" departDelay="0.00" arrival="25.00" arrivalLane="W_out_1" arrivalPos="189.60" arrivalSpeed="11.97" duration="25.00" routeLength="232.54" waitingTime="0.00" waitingCount="0" stopTime="0.00" timeLoss="4.34" rerouteNo="0" devices="vehroute_flow_6_phase1_S_left.0 tripinfo_flow_6_phase1_S_left.0" vType="moto" speedFactor="0.88" vaporized=""/>
    <tripinfo id="flow_4_phase1_N_uturn.0" depart="0.00" departLane="N_in_1" departPos="127.60" departSpeed="0.08" departDelay="0.00" arrival="32.00" arrivalLane="N_out_1" arrivalPos="189.60" arrivalSpeed="11.53" duration="32.00" routeLength="256.27" waitingTime="2.00" waitingCount="1" stopTime="0.00" timeLoss="10.54" rerouteNo="0" devices="vehroute_flow_4_phase1_N_uturn.0 tripinfo_flow_4_phase1_N_uturn.0" vType="car" speedFactor="0.92" vaporized=""/>
    <tripinfo id="flow_12_phase1_E_uturn.0" depart="0.00" departLane="E_in_0" departPos="129.89" departSpeed="13.76" departDelay="0.00" arrival="35.00" arrivalLane="E_out_1" arrivalPos="189.60" arrivalSpeed="14.22" duration="35.00" routeLength="253.98" waitingTime="6.00" waitingCount="1" stopTime="0.00" timeLoss="16.29" rerouteNo="0" devices="vehroute_flow_12_phase1_E_uturn.0 tripinfo_flow_12_phase1_E_uturn.0" vType="moto" speedFactor="1.03" vaporized=""/>
    <tripinfo id="flow_11_phase1_E_right.0" depart="0.00" departLane="E_in_1" departPos="144.95" departSpeed="4.02" departDelay="0.00" arrival="39.00" arrivalLane="N_out_0" arrivalPos="189.60" arrivalSpeed="13.21" duration="39.00" routeLength="243.28" waitingTime="10.00" waitingCount="1" stopTime="0.00" timeLoss="20.12" rerouteNo="0" devices="vehroute_flow_11_phase1_E_right.0 tripinfo_flow_11_phase1_E_right.0" vType="bus" speedFactor="0.96" vaporized=""/>
    <tripinfo id="flow_15_phase1_W_right.0" depart="0.00" departLane="W_in_1" departPos="108.38" departSpeed="1.98" departDelay="0.00" arrival="39.00" arrivalLane="S_out_0" arrivalPos="189.60" arrivalSpeed="10.73" duration="39.00" routeLength="279.85" waitingTime="6.00" waitingCount="1" stopTime="0.00" timeLoss="13.88" rerouteNo="0" devices="vehroute_flow_15_phase1_W_right.0 tripinfo_flow_15_phase1_W_right.0" vType="moto" speedFactor="0.85" vaporized=""/>
    <tripinfo id="flow_9_phase1_E_straight.0" depart="0.00" departLane="W_in_0" departPos="168.29" departSpeed="9.83" departDelay="0.00" arrival="40.00" arrivalLane="N_out_1" arrivalPos="189.60" arrivalSpeed="11.78" duration="40.00" routeLength="230.26" waitingTime="13.00" waitingCount="1" stopTime="0.00" timeLoss="20.84" rerouteNo="0" devices="vehroute_flow_9_phase1_E_straight.0 tripinfo_flow_9_phase1_E_straight.0" vType="truck" speedFactor="0.90" vaporized=""/>
    <tripinfo id="flow_16_phase1_W_uturn.0" depart="0.00" departLane="W_in_0" departPos="126.68" departSpeed="11.71" departDelay="0.00" arrival="40.00" arrivalLane="W_out_1" arrivalPos="189.60" arrivalSpeed="14.32" duration="40.00" routeLength="257.19" waitingTime="11.00" waitingCount="1" stopTime="0.00" timeLoss="20.83" rerouteNo="0" devices="vehroute_flow_16_phase1_W_uturn.0 tripinfo_flow_16_phase1_W_uturn.0" vType="moto" speedFactor="1.04" vaporized=""/>
    <tripinfo id="flow_13_phase1_W_straight.0" depart="0.00" departLane="W_in_0" departPos="23.77" departSpeed="1.48" departDelay="0.00" arrival="41.00" arrivalLane="E_out_0" arrivalPos="189.60" arrivalSpeed="10.91" duration="41.00" routeLength="376.23" waitingTime="0.00" waitingCount="0" stopTime="0.00" timeLoss="7.90" rerouteNo="0" devices="vehroute_flow_13_phase1_W_straight.0 tripinfo_flow_13_phase1_W_straight.0" vType="container" speedFactor="0.82" vaporized=""/>
    <tripinfo id="flow_13_phase1_W_straight.1" depart="19.00" departLane="W_in_1" departPos="121.65" departSpeed="2.86" departDelay="0.84" arrival="41.00" arrivalLane="E_out_1" arrivalPos="189.60" arrivalSpeed="14.51" duration="22.00" routeLength="278.35" waitingTime="0.00" waitingCount="0" stopTime="0.00" timeLoss="4.13" rerouteNo="0" devices="vehroute_flow_13_phase1_W_straight.1 tripinfo_flow_13_phase1_W_straight.1" vType="car" speedFactor="1.12" vaporized=""/>
    <tripinfo id="flow_14_phase1_W_left.0" depart="0.00" departLane="W_in_1" departPos="50.07" departSpeed="13.54" departDelay="0.00" arrival="42.00" arrivalLane="N_out_1" arrivalPos="189.60" arrivalSpeed="13.37" duration="42.00" routeLength="348.48" waitingTime="8.00" waitingCount="1" stopTime="0.00" timeLoss="16.28" rerouteNo="0" devices="vehroute_flow_14_phase1_W_left.0 tripinfo_flow_14_phase1_W_left.0" vType="moto" speedFactor="1.01" vaporized=""/>
    <tripinfo id="flow_5_phase1_S_straight.1" depart="18.00" departLane="S_in_0" departPos="131.13" departSpeed="9.54" departDelay="0.05" arrival="50.00" arrivalLane="N_out_1" arrivalPos="189.60" arrivalSpeed="15.20" duration="32.00" routeLength="268.87" waitingTime="4.00" waitingCount="1" stopTime="0.00" timeLoss="14.60" rerouteNo="0" devices="vehroute_flow_5_phase1_S_straight.1 tripinfo_flow_5_phase1_S_straight.1" vType="moto" speedFactor="1.16" vaporized=""/>
    <tripinfo id="flow_10_phase1_E_left.0" depart="0.00" departLane="E_in_0" departPos="44.88" departSpeed="7.69" departDelay="0.00" arrival="52.00" arrivalLane="S_out_1" arrivalPos="189.60" arrivalSpeed="13.56" duration="52.00" routeLength="353.67" waitingTime="8.00" waitingCount="2" stopTime="0.00" timeLoss="25.34" rerouteNo="0" devices="vehroute_flow_10_phase1_E_left.0 tripinfo_flow_10_phase1_E_left.0" vType="truck" speedFactor="1.02" vaporized=""/>
    <tripinfo id="flow_2_phase1_N_left.0" depart="0.00" departLane="N_in_1" departPos="8.27" departSpeed="8.33" departDelay="0.00" arrival="55.00" arrivalLane="E_out_1" arrivalPos="189.60" arrivalSpeed="13.89" duration="55.00" routeLength="390.28" waitingTime="15.00" waitingCount="2" stopTime="0.00" timeLoss="25.91" rerouteNo="0" devices="vehroute_flow_2_phase1_N_left.0 tripinfo_flow_2_phase1_N_left.0" vType="moto" speedFactor="1.02" vaporized=""/>
    <tripinfo id="flow_1_phase1_N_straight.1" depart="19.00" departLane="N_in_1" departPos="31.93" departSpeed="9.28" departDelay="0.66" arrival="55.00" arrivalLane="S_out_1" arrivalPos="189.60" arrivalSpeed="15.37" duration="36.00" routeLength="368.07" waitingTime="2.00" waitingCount="1" stopTime="0.00" timeLoss="12.33" rerouteNo="0" devices="vehroute_flow_1_phase1_N_straight.1 tripinfo_flow_1_phase1_N_straight.1" vType="moto" speedFactor="1.19" vaporized=""/>
    <tripinfo id="flow_1_phase1_N_straight.0" depart="0.00" departLane="N_in_0" departPos="8.62" departSpeed="8.51" departDelay="0.00" arrival="56.00" arrivalLane="S_out_0" arrivalPos="189.60" arrivalSpeed="11.31" duration="56.00" routeLength="391.38" waitingTime="11.00" waitingCount="1" stopTime="0.00" timeLoss="22.46" rerouteNo="0" devices="vehroute_flow_1_phase1_N_straight.0 tripinfo_flow_1_phase1_N_straight.0" vType="bus" speedFactor="0.86" vaporized=""/>
    <tripinfo id="flow_13_phase1_W_straight.2" depart="37.00" departLane="W_in_1" departPos="107.53" departSpeed="1.11" departDelay="0.67" arrival="64.00" arrivalLane="E_out_0" arrivalPos="189.60" arrivalSpeed="12.11" duration="27.00" routeLength="292.47" waitingTime="0.00" waitingCount="0" stopTime="0.00" timeLoss="4.12" rerouteNo="0" devices="vehroute_flow_13_phase1_W_straight.2 tripinfo_flow_13_phase1_W_straight.2" vType="moto" speedFactor="0.93" vaporized=""/>
    <tripinfo id="flow_9_phase1_E_straight.1" depart="18.00" departLane="W_in_1" departPos="58.36" departSpeed="11.64" departDelay="0.52" arrival="65.00" arrivalLane="N_out_1" arrivalPos="189.60" arrivalSpeed="11.88" duration="47.00" routeLength="340.19" waitingTime="10.00" waitingCount="1" stopTime="0.00" timeLoss="17.34" rerouteNo="0" devices="vehroute_flow_9_phase1_E_straight.1 tripinfo_flow_9_phase1_E_straight.1" vType="moto" speedFactor="0.87" vaporized=""/>
    <tripinfo id="flow_9_phase1_E_straight.2" depart="35.00" departLane="W_in_1" departPos="52.87" departSpeed="0.38" departDelay="0.05" arrival="67.00" arrivalLane="N_out_1" arrivalPos="189.60" arrivalSpeed="13.72" duration="32.00" routeLength="345.68" waitingTime="0.00" waitingCount="0" stopTime="0.00" timeLoss="5.18" rerouteNo="0" devices="vehroute_flow_9_phase1_E_straight.2 tripinfo_flow_9_phase1_E_straight.2" vType="moto" speedFactor="0.99" vaporized=""/>
    <tripinfo id="flow_11_phase1_E_right.1" depart="45.00" departLane="E_in_1" departPos="128.68" departSpeed="3.06" departDelay="0.91" arrival="69.00" arrivalLane="N_out_0" arrivalPos="189.60" arrivalSpeed="13.51" duration="24.00" routeLength="259.55" waitingTime="0.00" waitingCount="0" stopTime="0.00" timeLoss="4.81" rerouteNo="0" devices="vehroute_flow_11_phase1_E_right.1 tripinfo_flow_11_phase1_E_right.1" vType="moto" speedFactor="1.04" vaporized=""/>
    <tripinfo id="flow_15_phase1_W_right.1" depart="45.00" departLane="W_in_0" departPos="73.90" departSpeed="9.22" departDelay="0.44" arrival="70.00" arrivalLane="S_out_0" arrivalPos="189.60" arrivalSpeed="14.05" duration="25.00" routeLength="314.33" waitingTime="0.00" waitingCount="0" stopTime="0.00" timeLoss="3.17" rerouteNo="0" devices="vehroute_flow_15_phase1_W_right.1 tripinfo_flow_15_phase1_W_right.1" vType="moto" speedFactor="1.08" vaporized=""/>
    <tripinfo id="flow_7_phase1_S_right.0" depart="0.00" departLane="E_in_0" departPos="8.76" departSpeed="8.07" departDelay="0.00" arrival="75.00" arrivalLane="E_out_0" arrivalPos="189.60" arrivalSpeed="11.28" duration="75.00" routeLength="375.11" waitingTime="13.00" waitingCount="4" stopTime="0.00" timeLoss="41.82" rerouteNo="0" devices="vehroute_flow_7_phase1_S_right.0 tripinfo_flow_7_phase1_S_right.0" vType="container" speedFactor="0.85" vaporized=""/>
    <tripinfo id="flow_5_phase1_S_straight.2" depart="36.00" departLane="S_in_1" departPos="12.70" departSpeed="12.41" departDelay="0.09" arrival="75.00" arrivalLane="N_out_0" arrivalPos="189.60" arrivalSpeed="12.43" duration="39.00" routeLength="387.30" waitingTime="4.00" waitingCount="1" stopTime="0.00" timeLoss="9.99" rerouteNo="0" devices="vehroute_flow_5_phase1_S_straight.2 tripinfo_flow_5_phase1_S_straight.2" vType="moto" speedFactor="0.96" vaporized=""/>
    <tripinfo id="flow_1_phase1_N_straight.3" depart="56.00" departLane="N_in_0" departPos="148.08" departSpeed="9.64" departDelay="0.97" arrival="75.00" arrivalLane="S_out_0" arrivalPos="189.60" arrivalSpeed="13.40" duration="19.00" routeLength="251.92" waitingTime="0.00" waitingCount="0" stopTime="0.00" timeLoss="1.47" rerouteNo="0" devices="vehroute_flow_1_phase1_N_straight.3 tripinfo_flow_1_phase1_N_straight.3" vType="car" speedFactor="1.05" vaporized=""/>
    <tripinfo id="flow_3_phase1_N_right.1" depart="47.00" departLane="N_in_0" departPos="166.00" departSpeed="1.28" departDelay="0.61" arrival="76.00" arrivalLane="W_out_0" arrivalPos="189.60" arrivalSpeed="11.94" duration="29.00" routeLength="222.23" waitingTime="4.00" waitingCount="1" stopTime="0.00" timeLoss="10.29" rerouteNo="0" devices="vehroute_flow_3_phase1_N_right.1 tripinfo_flow_3_phase1_N_right.1" vType="moto" speedFactor="0.88" vaporized=""/>
    <tripinfo id="flow_1_phase1_N_straight.2" depart="37.00" departLane="N_in_1" departPos="59.51" departSpeed="13.32" departDelay="0.31" arrival="80.00" arrivalLane="S_out_0" arrivalPos="189.60" arrivalSpeed="13.39" duration="43.00" routeLength="340.49" waitingTime="5.00" waitingCount="1" stopTime="0.00" timeLoss="17.34" rerouteNo="0" devices="vehroute_flow_1_phase1_N_straight.2 tripinfo_flow_1_phase1_N_straight.2" vType="bus" speedFactor="0.97" vaporized=""/>
    <tripinfo id="flow_6_phase1_S_left.1" depart="46.00" departLane="S_in_1" departPos="110.92" departSpeed="11.99" departDelay="0.60" arrival="82.00" arrivalLane="W_out_1" arrivalPos="189.60" arrivalSpeed="13.37" duration="36.00" routeLength="287.63" waitingTime="7.00" waitingCount="2" stopTime="0.00" timeLoss="15.05" rerouteNo="0" devices="vehroute_flow_6_phase1_S_left.1 tripinfo_flow_6_phase1_S_left.1" vType="moto" speedFactor="1.05" vaporized=""/>
    <tripinfo id="flow_5_phase1_S_straight.3" depart="54.00" departLane="S_in_1" departPos="77.94" departSpeed="4.43" departDelay="0.14" arrival="83.00" arrivalLane="N_out_0" arrivalPos="189.60" arrivalSpeed="14.47" duration="29.00" routeLength="322.06" waitingTime="0.00" waitingCount="0" stopTime="0.00" timeLoss="7.14" rerouteNo="0" devices="vehroute_flow_5_phase1_S_straight.3 tripinfo_flow_5_phase1_S_straight.3" vType="moto" speedFactor="1.08" vaporized=""/>
    <tripinfo id="flow_2_phase1_N_left.1" depart="45.00" departLane="N_in_0" departPos="8.88" departSpeed="2.82" departDelay="0.65" arrival="86.00" arrivalLane="E_out_1" arrivalPos="189.60" arrivalSpeed="15.44" duration="41.00" routeLength="389.67" waitingTime="2.00" waitingCount="1" stopTime="0.00" timeLoss="15.09" rerouteNo="0" devices="vehroute_flow_2_phase1_N_left.1 tripinfo_flow_2_phase1_N_left.1" vType="moto" speedFactor="1.12" vaporized=""/>
    <tripinfo id="flow_1_phase1_N_straight.4" depart="74.00" departLane="N_in_0" departPos="185.47" departSpeed="8.63" departDelay="0.62" arrival="92.00" arrivalLane="S_out_0" arrivalPos="189.60" arrivalSpeed="12.11" duration="18.00" routeLength="214.53" waitingTime="0.00" waitingCount="0" stopTime="0.00" timeLoss="1.04" rerouteNo="0" devices="vehroute_flow_1_phase1_N_straight.4 tripinfo_flow_1_phase1_N_straight.4" vType="truck" speedFactor="0.92" vaporized=""/>
    <tripinfo id="flow_5_phase1_S_straight.4" depart="72.00" departLane="S_in_0" departPos="167.23" departSpeed="1.90" departDelay="0.18" arrival="99.00" arrivalLane="N_out_0" arrivalPos="189.60" arrivalSpeed="13.07" duration="27.00" routeLength="232.77" waitingTime="0.00" waitingCount="0" stopTime="0.00" timeLoss="9.38" rerouteNo="0" devices="vehroute_flow_5_phase1_S_straight.4 tripinfo_flow_5_phase1_S_straight.4" vType="container" speedFactor="0.97" vaporized=""/>
    <tripinfo id="flow_11_phase1_E_right.2" depart="89.00" departLane="E_in_1" departPos="19.51" departSpeed="8.76" departDelay="0.82" arrival="116.00" arrivalLane="N_out_0" arrivalPos="189.60" arrivalSpeed="14.94" duration="27.00" routeLength="368.72" waitingTime="0.00" waitingCount="0" stopTime="0.00" timeLoss="2.34" rerouteNo="0" devices="vehroute_flow_11_phase1_E_right.2 tripinfo_flow_11_phase1_E_right.2" vType="emergency" speedFactor="1.10" vaporized=""/>
    <tripinfo id="flow_4_phase1_N_uturn.1" depart="90.00" departLane="N_in_0" departPos="155.68" departSpeed="8.37" departDelay="0.37" arrival="116.00" arrivalLane="N_out_1" arrivalPos="189.60" arrivalSpeed="12.88" duration="26.00" routeLength="228.19" waitingTime="0.00" waitingCount="0" stopTime="0.00" timeLoss="6.44" rerouteNo="0" devices="vehroute_flow_4_phase1_N_uturn.1 tripinfo_flow_4_phase1_N_uturn.1" vType="truck" speedFactor="0.94" vaporized=""/>
    <tripinfo id="flow_13_phase1_W_straight.3" depart="55.00" departLane="W_in_0" departPos="19.25" departSpeed="11.19" departDelay="0.51" arrival="117.00" arrivalLane="E_out_0" arrivalPos="189.60" arrivalSpeed="15.32" duration="62.00" routeLength="380.75" waitingTime="30.00" waitingCount="1" stopTime="0.00" timeLoss="37.46" rerouteNo="0" devices="vehroute_flow_13_phase1_W_straight.3 tripinfo_flow_13_phase1_W_straight.3" vType="moto" speedFactor="1.20" vaporized=""/>
    <tripinfo id="flow_15_phase1_W_right.2" depart="90.00" departLane="W_in_0" departPos="64.25" departSpeed="6.71" departDelay="0.87" arrival="125.00" arrivalLane="S_out_0" arrivalPos="189.60" arrivalSpeed="13.68" duration="35.00" routeLength="323.98" waitingTime="1.00" waitingCount="1" stopTime="0.00" timeLoss="11.07" rerouteNo="0" devices="vehroute_flow_15_phase1_W_right.2 tripinfo_flow_15_phase1_W_right.2" vType="moto" speedFactor="1.03" vaporized=""/>
    <tripinfo id="flow_14_phase1_W_left.1" depart="47.00" departLane="W_in_0" departPos="80.60" departSpeed="9.44" departDelay="0.22" arrival="126.00" arrivalLane="N_out_1" arrivalPos="189.60" arrivalSpeed="12.28" duration="79.00" routeLength="317.95" waitingTime="40.00" waitingCount="1" stopTime="0.00" timeLoss="52.84" rerouteNo="0" devices="vehroute_flow_14_phase1_W_left.1 tripinfo_flow_14_phase1_W_left.1" vType="container" speedFactor="0.91" vaporized=""/>
    <tripinfo id="flow_13_phase1_W_straight.4" depart="73.00" departLane="W_in_0" departPos="8.08" departSpeed="5.80" departDelay="0.34" arrival="126.00" arrivalLane="E_out_0" arrivalPos="189.60" arrivalSpeed="12.01" duration="53.00" routeLength="391.92" waitingTime="7.00" waitingCount="1" stopTime="0.00" timeLoss="19.95" rerouteNo="0" devices="vehroute_flow_13_phase1_W_straight.4 tripinfo_flow_13_phase1_W_straight.4" vType="bus" speedFactor="0.87" vaporized=""/>
    <tripinfo id="flow_9_phase1_E_straight.3" depart="53.00" departLane="W_in_1" departPos="108.76" departSpeed="5.39" departDelay="0.57" arrival="129.00" arrivalLane="N_out_1" arrivalPos="189.60" arrivalSpeed="11.40" duration="76.00" routeLength="289.79" waitingTime="37.00" waitingCount="1" stopTime="0.00" timeLoss="50.47" rerouteNo="0" devices="vehroute_flow_9_phase1_E_straight.3 tripinfo_flow_9_phase1_E_straight.3" vType="bus" speedFactor="0.85" vaporized=""/>
    <tripinfo id="flow_3_phase1_N_right.2" depart="93.00" departLane="N_in_1" departPos="84.30" departSpeed="1.48" departDelay="0.22" arrival="129.00" arrivalLane="W_out_0" arrivalPos="189.60" arrivalSpeed="14.43" duration="36.00" routeLength="303.93" waitingTime="5.00" waitingCount="1" stopTime="0.00" timeLoss="15.59" rerouteNo="0" devices="vehroute_flow_3_phase1_N_right.2 tripinfo_flow_3_phase1_N_right.2" vType="moto" speedFactor="1.10" vaporized=""/>
    <tripinfo id="flow_5_phase1_S_straight.5" depart="90.00" departLane="S_in_1" departPos="2.77" departSpeed="7.27" departDelay="0.23" arrival="132.00" arrivalLane="N_out_0" arrivalPos="189.60" arrivalSpeed="12.57" duration="42.00" routeLength="397.23" waitingTime="3.00" waitingCount="1" stopTime="0.00" timeLoss="11.66" rerouteNo="0" devices="vehroute_flow_5_phase1_S_straight.5 tripinfo_flow_5_phase1_S_straight.5" vType="moto" speedFactor="0.95" vaporized=""/>
    <tripinfo id="flow_7_phase1_S_right.1" depart="45.00" departLane="E_in_1" departPos="66.71" departSpeed="7.87" departDelay="0.90" arrival="133.00" arrivalLane="E_out_0" arrivalPos="189.60" arrivalSpeed="10.59" duration="88.00" routeLength="317.16" waitingTime="41.00" waitingCount="2" stopTime="0.00" timeLoss="56.86" rerouteNo="0" devices="vehroute_flow_7_phase1_S_right.1 tripinfo_flow_7_phase1_S_right.1" vType="container" speedFactor="0.78" vaporized=""/>
    <tripinfo id="flow_2_phase1_N_left.2" depart="89.00" departLane="N_in_1" departPos="111.69" departSpeed="5.97" departDelay="0.30" arrival="135.00" arrivalLane="E_out_1" arrivalPos="189.60" arrivalSpeed="12.72" duration="46.00" routeLength="286.86" waitingTime="14.00" waitingCount="2" stopTime="0.00" timeLoss="24.50" rerouteNo="0" devices="vehroute_flow_2_phase1_N_left.2 tripinfo_flow_2_phase1_N_left.2" vType="moto" speedFactor="1.00" vaporized=""/>
    <tripinfo id="flow_8_phase1_S_uturn.1" depart="90.00" departLane="S_in_0" departPos="91.52" departSpeed="10.95" departDelay="0.53" arrival="135.00" arrivalLane="S_out_1" arrivalPos="189.60" arrivalSpeed="12.31" duration="45.00" routeLength="292.35" waitingTime="12.00" waitingCount="1" stopTime="0.00" timeLoss="19.73" rerouteNo="0" devices="vehroute_flow_8_phase1_S_uturn.1 tripinfo_flow_8_phase1_S_uturn.1" vType="moto" speedFactor="0.89" vaporized=""/>
    <tripinfo id="flow_1_phase1_N_straight.5" depart="92.00" departLane="N_in_1" departPos="84.66" departSpeed="1.92" departDelay="0.28" arrival="135.00" arrivalLane="S_out_0" arrivalPos="189.60" arrivalSpeed="11.80" duration="43.00" routeLength="315.34" waitingTime="8.00" waitingCount="1" stopTime="0.00" timeLoss="16.96" rerouteNo="0" devices="vehroute_flow_1_phase1_N_straight.5 tripinfo_flow_1_phase1_N_straight.5" vType="moto" speedFactor="0.90" vaporized=""/>
    <tripinfo id="flow_5_phase1_S_straight.6" depart="108.00" departLane="S_in_0" departPos="42.85" departSpeed="1.49" departDelay="0.28" arrival="135.00" arrivalLane="N_out_0" arrivalPos="189.60" arrivalSpeed="14.56" duration="27.00" routeLength="357.15" waitingTime="0.00" waitingCount="0" stopTime="0.00" timeLoss="3.53" rerouteNo="0" devices="vehroute_flow_5_phase1_S_straight.6 tripinfo_flow_5_phase1_S_straight.6" vType="moto" speedFactor="1.10" vaporized=""/>
    <tripinfo id="flow_1_phase1_N_straight.6" depart="111.00" departLane="N_in_1" departPos="88.32" departSpeed="11.59" departDelay="0.94" arrival="136.00" arrivalLane="S_out_1" arrivalPos="189.60" arrivalSpeed="12.73" duration="25.00" routeLength="311.68" waitingTime="0.00" waitingCount="0" stopTime="0.00" timeLoss="1.87" rerouteNo="0" devices="vehroute_flow_1_phase1_N_straight.6 tripinfo_flow_1_phase1_N_straight.6" vType="car" speedFactor="0.98" vaporized=""/>
    <tripinfo id="flow_6_phase1_S_left.2" depart="91.00" departLane="S_in_0" departPos="78.09" departSpeed="13.48" departDelay="0.20" arrival="139.00" arrivalLane="W_out_1" arrivalPos="189.60" arrivalSpeed="13.88" duration="48.00" routeLength="320.46" waitingTime="11.00" waitingCount="2" stopTime="0.00" timeLoss="25.80" rerouteNo="0" devices="vehroute_flow_6_phase1_S_left.2 tripinfo_flow_6_phase1_S_left.2" vType="moto" speedFactor="1.07" vaporized=""/>
    <tripinfo id="flow_13_phase1_W_straight.5" depart="91.00" departLane="W_in_1" departPos="63.10" departSpeed="7.04" departDelay="0.18" arrival="144.00" arrivalLane="E_out_0" arrivalPos="189.60" arrivalSpeed="14.20" duration="53.00" routeLength="336.90" waitingTime="14.00" waitingCount="1" stopTime="0.00" timeLoss="29.53" rerouteNo="0" devices="vehroute_flow_13_phase1_W_straight.5 tripinfo_flow_13_phase1_W_straight.5" vType="moto" speedFactor="1.04" vaporized=""/>
    <tripinfo id="flow_13_phase1_W_straight.6" depart="109.00" departLane="W_in_1" departPos="60.83" departSpeed="2.65" departDelay="0.02" arrival="147.00" arrivalLane="E_out_0" arrivalPos="189.60" arrivalSpeed="12.69" duration="38.00" routeLength="339.17" waitingTime="1.00" waitingCount="1" stopTime="0.00" timeLoss="12.30" rerouteNo="0" devices="vehroute_flow_13_phase1_W_straight.6 tripinfo_flow_13_phase1_W_straight.6" vType="car" speedFactor="0.98" vaporized=""/>
    <tripinfo id="flow_9_phase1_E_straight.4" depart="70.00" departLane="W_in_1" departPos="23.57" departSpeed="9.43" departDelay="0.10" arrival="148.00" arrivalLane="N_out_1" arrivalPos="189.60" arrivalSpeed="12.83" duration="78.00" routeLength="374.98" waitingTime="29.00" waitingCount="2" stopTime="0.00" timeLoss="48.37" rerouteNo="0" devices="vehroute_flow_9_phase1_E_straight.4 tripinfo_flow_9_phase1_E_straight.4" vType="bus" speedFactor="0.95" vaporized=""/>
    <tripinfo id="flow_9_phase1_E_straight.6" depart="105.00" departLane="W_in_0" departPos="149.69" departSpeed="1.84" departDelay="0.14" arrival="150.00" arrivalLane="N_out_1" arrivalPos="189.60" arrivalSpeed="13.82" duration="45.00" routeLength="248.86" waitingTime="12.00" waitingCount="1" stopTime="0.00" timeLoss="26.18" rerouteNo="0" devices="vehroute_flow_9_phase1_E_straight.6 tripinfo_flow_9_phase1_E_straight.6" vType="moto" speedFactor="1.02" vaporized=""/>
    <tripinfo id="flow_9_phase1_E_straight.5" depart="88.00" departLane="W_in_1" departPos="65.33" departSpeed="2.19" departDelay="0.62" arrival="151.00" arrivalLane="N_out_1" arrivalPos="189.60" arrivalSpeed="13.99" duration="63.00" routeLength="333.22" waitingTime="16.00" waitingCount="2" stopTime="0.00" timeLoss="38.95" rerouteNo="0" devices="vehroute_flow_9_phase1_E_straight.5 tripinfo_flow_9_phase1_E_straight.5" vType="moto" speedFactor="1.03" vaporized=""/>
    <tripinfo id="flow_1_phase1_N_straight.7" depart="129.00" departLane="N_in_0" departPos="140.51" departSpeed="11.07" departDelay="0.59" arrival="157.00" arrivalLane="S_out_0" arrivalPos="189.60" arrivalSpeed="13.59" duration="28.00" routeLength="259.49" waitingTime="3.00" waitingCount="1" stopTime="0.00" timeLoss="9.57" rerouteNo="0" devices="vehroute_flow_1_phase1_N_straight.7 tripinfo_flow_1_phase1_N_straight.7" vType="moto" speedFactor="1.06" vaporized=""/>
    <tripinfo id="flow_10_phase1_E_left.1" depart="46.00" departLane="E_in_1" departPos="4.52" departSpeed="3.89" departDelay="0.54" arrival="160.00" arrivalLane="S_out_0" arrivalPos="189.60" arrivalSpeed="10.10" duration="114.00" routeLength="394.03" waitingTime="50.00" waitingCount="3" stopTime="0.00" timeLoss="76.10" rerouteNo="0" devices="vehroute_flow_10_phase1_E_left.1 tripinfo_flow_10_phase1_E_left.1" vType="truck" speedFactor="0.77" vaporized=""/>
    <tripinfo id="flow_5_phase1_S_straight.8" depart="144.00" departLane="S_in_0" departPos="157.03" departSpeed="12.04" departDelay="0.37" arrival="160.00" arrivalLane="N_out_1" arrivalPos="189.60" arrivalSpeed="15.75" duration="16.00" routeLength="242.97" waitingTime="0.00" waitingCount="0" stopTime="0.00" timeLoss="0.62" rerouteNo="0" devices="vehroute_flow_5_phase1_S_straight.8 tripinfo_flow_5_phase1_S_straight.8" vType="emergency" speedFactor="1.14" vaporized=""/>
    <tripinfo id="flow_5_phase1_S_straight.7" depart="126.00" departLane="S_in_1" departPos="150.35" departSpeed="7.14" departDelay="0.32" arrival="163.00" arrivalLane="N_out_0" arrivalPos="189.60" arrivalSpeed="11.93" duration="37.00" routeLength="249.65" waitingTime="5.00" waitingCount="1" stopTime="0.00" timeLoss="16.65" rerouteNo="0" devices="vehroute_flow_5_phase1_S_straight.7 tripinfo_flow_5_phase1_S_straight.7" vType="bus" speedFactor="0.90" vaporized=""/>
    <tripinfo id="flow_2_phase1_N_left.3" depart="134.00" departLane="N_in_1" departPos="140.12" departSpeed="9.78" departDelay="0.95" arrival="169.00" arrivalLane="E_out_1" arrivalPos="189.60" arrivalSpeed="11.62" duration="35.00" routeLength="258.43" waitingTime="8.00" waitingCount="1" stopTime="0.00" timeLoss="12.28" rerouteNo="0" devices="vehroute_flow_2_phase1_N_left.3 tripinfo_flow_2_phase1_N_left.3" vType="moto" speedFactor="0.89" vaporized=""/>
    <tripinfo id="flow_15_phase1_W_right.3" depart="134.00" departLane="W_in_1" departPos="74.79" departSpeed="3.05" departDelay="0.31" arrival="169.00" arrivalLane="S_out_0" arrivalPos="189.60" arrivalSpeed="15.45" duration="35.00" routeLength="313.44" waitingTime="5.00" waitingCount="1" stopTime="0.00" timeLoss="14.54" rerouteNo="0" devices="vehroute_flow_15_phase1_W_right.3 tripinfo_flow_15_phase1_W_right.3" vType="moto" speedFactor="1.17" vaporized=""/>
    <tripinfo id="flow_7_phase1_S_right.2" depart="89.00" departLane="E_in_1" departPos="129.09" departSpeed="6.03" departDelay="0.80" arrival="170.00" arrivalLane="E_out_1" arrivalPos="189.60" arrivalSpeed="13.97" duration="81.00" routeLength="254.78" waitingTime="32.00" waitingCount="4" stopTime="0.00" timeLoss="63.63" rerouteNo="0" devices="vehroute_flow_7_phase1_S_right.2 tripinfo_flow_7_phase1_S_right.2" vType="moto" speedFactor="1.14" vaporized=""/>
    <tripinfo id="flow_10_phase1_E_left.2" depart="91.00" departLane="E_in_1" departPos="74.60" departSpeed="13.51" departDelay="0.07" arrival="171.00" arrivalLane="S_out_1" arrivalPos="189.60" arrivalSpeed="14.72" duration="80.00" routeLength="323.95" waitingTime="28.00" waitingCount="4" stopTime="0.00" timeLoss="58.56" rerouteNo="0" devices="vehroute_flow_10_phase1_E_left.2 tripinfo_flow_10_phase1_E_left.2" vType="moto" speedFactor="1.14" vaporized=""/>