<?xml version="1.0" encoding="UTF-8"?>

<!-- generated on 2025-12-09 22:51:18 by Eclipse SUMO sumo Version 1.18.0
<configuration xmlns:xsi="http://www.w3.org/2001/XMLSchema-instance" xsi:noNamespaceSchemaLocation="http://sumo.dlr.de/xsd/sumoConfiguration.xsd">

    <input>
        <net-file value="/workspace/nets/60p2k/net.net.xml"/>
        <route-files value="/workspace/nets/60p2k/route_temp_612_137971484654080_15553294.rou.xml"/>
    </input>

    <output>
        <summary-output value="results/summary_ep_2.xml"/>
        <tripinfo-output value="results/tripinfo_ep_2.xml"/>
        <vehroute-output value="results/vehroute_ep_2.xml"/>
    </output>

    <time>
        <begin value="0"/>
    </time>

    <report>
        <verbose value="true"/>
        <no-step-log value="true"/>
    </report>

    <traci_server>
        <remote-port value="53789"/>
    </traci_server>

    <gui_only>
        <gui-settings-file value="/workspace/nets/60p2k/gui-settings.xml"/>
        <quit-on-end value="true"/>
    </gui_only>

</configuration>
-->

<tripinfos xmlns:xsi="http://www.w3.org/2001/XMLSchema-instance" xsi:noNamespaceSchemaLocation="http://sumo.dlr.de/xsd/tripinfo_file.xsd">
    <tripinfo id="flow_12_phase1_E_uturn.0" depart="0.00" departLane="S_in_0" departPos="129.89" departSpeed="13.76" departDelay="0.00" arrival="20.00" arrivalLane="N_out_0" arrivalPos="189.60" arrivalSpeed="14.28" duration="20.00" routeLength="270.11" waitingTime="0.00" waitingCount="0" stopTime="0.00" timeLoss="0.73" rerouteNo="0" devices="vehroute_flow_12_phase1_E_uturn.0 tripinfo_flow_12_phase1_E_uturn.0" vType="moto" speedFactor="1.03" vaporized=""/>
    <tripinfo id="flow_3_phase1_N_right.0" depart="0.00" departLane="N_in_0" departPos="103.38" departSpeed="3.75" departDelay="0.00" arrival="24.00" arrivalLane="W_out_0" arrivalPos="189.60" arrivalSpeed="14.93" duration="24.00" routeLength="284.85" waitingTime="0.00" waitingCount="0" stopTime="0.00" timeLoss="4.48" rerouteNo="0" devices="vehroute_flow_3_phase1_N_right.0 tripinfo_flow_3_phase1_N_right.0" vType="car" speedFactor="1.09" vaporized=""/>
    <tripinfo id="flow_8_phase1_S_uturn.0" depart="0.00" departLane="S_in_0" departPos="120.11" departSpeed="4.48" departDelay="0.00" arrival="24.00" arrivalLane="S_out_1" arrivalPos="189.60" arrivalSpeed="13.35" duration="24.00" routeLength="263.76" waitingTime="0.00" waitingCount="0" stopTime="0.00" timeLoss="4.89" rerouteNo="0" devices="vehroute_flow_8_phase1_S_uturn.0 tripinfo_flow_8_phase1_S_uturn.0" vType="moto" speedFactor="1.05" vaporized=""/>
    <tripinfo id="flow_5_phase1_S_straight.0" depart="0.00" departLane="S_in_1" departPos="107.37" departSpeed="7.21" departDelay="0.00" arrival="25.00" arrivalLane="N_out_1" arrivalPos="189.60" arrivalSpeed="15.54" duration="25.00" routeLength="292.63" waitingTime="0.00" waitingCount="0" stopTime="0.00" timeLoss="6.38" rerouteNo="0" devices="vehroute_flow_5_phase1_S_straight.0 tripinfo_flow_5_phase1_S_straight.0" vType="moto" speedFactor="1.15" vaporized=""/>
    <tripinfo id="flow_6_phase1_S_left.0" depart="0.00" departLane="S_in_1" departPos="166.01" departSpeed="0.74" departDelay="0.00" arrival="25.00" arrivalLane="W_out_1" arrivalPos="189.60" arrivalSpeed="12.05" duration="25.00" routeLength="232.54" waitingTime="0.00" waitingCount="0" stopTime="0.00" timeLoss="4.27" rerouteNo="0" devices="vehroute_flow_6_phase1_S_left.0 tripinfo_flow_6_phase1_S_left.0" vType="moto" speedFactor="0.88" vaporized=""/>
    <tripinfo id="flow_4_phase1_N_uturn.0" depart="0.00" departLane="N_in_1" departPos="127.60" departSpeed="0.08" departDelay="0.00" arrival="32.00" arrivalLane="N_out_1" arrivalPos="189.60" arrivalSpeed="12.70" duration="32.00" routeLength="256.27" waitingTime="2.00" waitingCount="1" stopTime="0.00" timeLoss="10.46" rerouteNo="0" devices="vehroute_flow_4_phase1_N_uturn.0 tripinfo_flow_4_phase1_N_uturn.0" vType="car" speedFactor="0.92" vaporized=""/>
    <tripinfo id="flow_16_phase1_W_uturn.0" depart="0.00" departLane="W_in_0" departPos="135.67" departSpeed="9.64" departDelay="0.00" arrival="37.00" arrivalLane="W_out_1" arrivalPos="189.60" arrivalSpeed="14.32" duration="37.00" routeLength="248.20" waitingTime="11.00" waitingCount="1" stopTime="0.00" timeLoss="18.37" rerouteNo="0" devices="vehroute_flow_16_phase1_W_uturn.0 tripinfo_flow_16_phase1_W_uturn.0" vType="moto" speedFactor="1.04" vaporized=""/>
    <tripinfo id="flow_15_phase1_W_right.0" depart="0.00" departLane="W_in_1" departPos="153.90" departSpeed="6.73" departDelay="0.00" arrival="39.00" arrivalLane="S_out_0" arrivalPos="189.60" arrivalSpeed="10.73" duration="39.00" routeLength="234.33" waitingTime="12.00" waitingCount="1" stopTime="0.00" timeLoss="17.73" rerouteNo="0" devices="vehroute_flow_15_phase1_W_right.0 tripinfo_flow_15_phase1_W_right.0" vType="moto" speedFactor="0.85" vaporized=""/>
    <tripinfo id="flow_9_phase1_E_straight.0" depart="0.00" departLane="E_in_0" departPos="168.29" departSpeed="9.83" departDelay="0.00" arrival="41.00" arrivalLane="W_out_0" arrivalPos="189.60" arrivalSpeed="12.37" duration="41.00" routeLength="231.71" waitingTime="12.00" waitingCount="1" stopTime="0.00" timeLoss="22.07" rerouteNo="0" devices="vehroute_flow_9_phase1_E_straight.0 tripinfo_flow_9_phase1_E_straight.0" vType="truck" speedFactor="0.90" vaporized=""/>
    <tripinfo id="flow_11_phase1_E_right.0" depart="0.00" departLane="E_in_1" departPos="144.95" departSpeed="4.02" departDelay="0.00" arrival="42.00" arrivalLane="N_out_0" arrivalPos="189.60" arrivalSpeed="13.30" duration="42.00" routeLength="243.28" waitingTime="12.00" waitingCount="1" stopTime="0.00" timeLoss="23.25" rerouteNo="0" devices="vehroute_flow_11_phase1_E_right.0 tripinfo_flow_11_phase1_E_right.0" vType="bus" speedFactor="0.96" vaporized=""/>
    <tripinfo id="flow_13_phase1_W_straight.0" depart="0.00" departLane="W_in_0" departPos="77.99" departSpeed="1.48" departDelay="0.00" arrival="46.00" arrivalLane="E_out_0" arrivalPos="189.60" arrivalSpeed="10.81" duration="46.00" routeLength="322.01" waitingTime="0.00" waitingCount="0" stopTime="0.00" timeLoss="16.92" rerouteNo="0" devices="vehroute_flow_13_phase1_W_straight.0 tripinfo_flow_13_phase1_W_straight.0" vType="container" speedFactor="0.82" vaporized=""/>
    <tripinfo id="flow_9_phase1_E_straight.1" depart="18.00" departLane="E_in_0" departPos="93.39" departSpeed="3.73" departDelay="0.52" arrival="46.00" arrivalLane="W_out_0" arrivalPos="189.60" arrivalSpeed="11.41" duration="28.00" routeLength="306.61" waitingTime="0.00" waitingCount="0" stopTime="0.00" timeLoss="2.52" rerouteNo="0" devices="vehroute_flow_9_phase1_E_straight.1 tripinfo_flow_9_phase1_E_straight.1" vType="moto" speedFactor="0.87" vaporized=""/>
    <tripinfo id="flow_14_phase1_W_left.0" depart="0.00" departLane="W_in_1" departPos="42.31" departSpeed="3.71" departDelay="0.00" arrival="47.00" arrivalLane="N_out_1" arrivalPos="189.60" arrivalSpeed="12.84" duration="47.00" routeLength="356.24" waitingTime="9.00" waitingCount="2" stopTime="0.00" timeLoss="20.90" rerouteNo="0" devices="vehroute_flow_14_phase1_W_left.0 tripinfo_flow_14_phase1_W_left.0" vType="moto" speedFactor="1.01" vaporized=""/>
    <tripinfo id="flow_10_phase1_E_left.0" depart="0.00" departLane="E_in_0" departPos="44.88" departSpeed="7.69" departDelay="0.00" arrival="50.00" arrivalLane="S_out_1" arrivalPos="189.60" arrivalSpeed="13.75" duration="50.00" routeLength="353.67" waitingTime="6.00" waitingCount="2" stopTime="0.00" timeLoss="23.43" rerouteNo="0" devices="vehroute_flow_10_phase1_E_left.0 tripinfo_flow_10_phase1_E_left.0" vType="truck" speedFactor="1.02" vaporized=""/>
    <tripinfo id="flow_5_phase1_S_straight.1" depart="18.00" departLane="S_in_1" departPos="177.29" departSpeed="8.41" departDelay="0.05" arrival="50.00" arrivalLane="N_out_1" arrivalPos="189.60" arrivalSpeed="15.89" duration="32.00" routeLength="222.71" waitingTime="8.00" waitingCount="1" stopTime="0.00" timeLoss="17.25" rerouteNo="0" devices="vehroute_flow_5_phase1_S_straight.1 tripinfo_flow_5_phase1_S_straight.1" vType="moto" speedFactor="1.16" vaporized=""/>
    <tripinfo id="flow_5_phase1_S_straight.2" depart="36.00" departLane="S_in_1" departPos="188.13" departSpeed="2.39" departDelay="0.09" arrival="55.00" arrivalLane="N_out_1" arrivalPos="189.60" arrivalSpeed="13.05" duration="19.00" routeLength="211.87" waitingTime="0.00" waitingCount="0" stopTime="0.00" timeLoss="2.25" rerouteNo="0" devices="vehroute_flow_5_phase1_S_straight.2 tripinfo_flow_5_phase1_S_straight.2" vType="moto" speedFactor="0.96" vaporized=""/>
    <tripinfo id="flow_7_phase1_S_right.0" depart="0.00" departLane="S_in_0" departPos="8.76" departSpeed="8.07" departDelay="0.00" arrival="57.00" arrivalLane="E_out_0" arrivalPos="189.60" arrivalSpeed="11.50" duration="57.00" routeLength="379.47" waitingTime="12.00" waitingCount="1" stopTime="0.00" timeLoss="23.66" rerouteNo="0" devices="vehroute_flow_7_phase1_S_right.0 tripinfo_flow_7_phase1_S_right.0" vType="container" speedFactor="0.85" vaporized=""/>
    <tripinfo id="flow_2_phase1_N_left.0" depart="0.00" departLane="N_in_1" departPos="8.27" departSpeed="8.33" departDelay="0.00" arrival="58.00" arrivalLane="E_out_1" arrivalPos="189.60" arrivalSpeed="13.27" duration="58.00" routeLength="390.28" waitingTime="20.00" waitingCount="2" stopTime="0.00" timeLoss="28.93" rerouteNo="0" devices="vehroute_flow_2_phase1_N_left.0 tripinfo_flow_2_phase1_N_left.0" vType="moto" speedFactor="1.02" vaporized=""/>
    <tripinfo id="flow_13_phase1_W_straight.1" depart="19.00" departLane="W_in_0" departPos="5.28" departSpeed="2.37" departDelay="0.84" arrival="71.00" arrivalLane="E_out_0" arrivalPos="189.60" arrivalSpeed="15.40" duration="52.00" routeLength="394.72" waitingTime="16.00" waitingCount="1" stopTime="0.00" timeLoss="26.13" rerouteNo="0" devices="vehroute_flow_13_phase1_W_straight.1 tripinfo_flow_13_phase1_W_straight.1" vType="car" speedFactor="1.12" vaporized=""/>
    <tripinfo id="flow_9_phase1_E_straight.2" depart="35.00" departLane="E_in_1" departPos="175.97" departSpeed="7.55" departDelay="0.05" arrival="72.00" arrivalLane="W_out_0" arrivalPos="189.60" arrivalSpeed="13.63" duration="37.00" routeLength="224.03" waitingTime="14.00" waitingCount="1" stopTime="0.00" timeLoss="20.33" rerouteNo="0" devices="vehroute_flow_9_phase1_E_straight.2 tripinfo_flow_9_phase1_E_straight.2" vType="moto" speedFactor="0.99" vaporized=""/>
    <tripinfo id="flow_15_phase1_W_right.1" depart="45.00" departLane="W_in_0" departPos="156.52" departSpeed="7.69" departDelay="0.44" arrival="72.00" arrivalLane="S_out_0" arrivalPos="189.60" arrivalSpeed="14.19" duration="27.00" routeLength="231.71" waitingTime="5.00" waitingCount="1" stopTime="0.00" timeLoss="10.93" rerouteNo="0" devices="vehroute_flow_15_phase1_W_right.1 tripinfo_flow_15_phase1_W_right.1" vType="moto" speedFactor="1.08" vaporized=""/>
    <tripinfo id="flow_11_phase1_E_right.1" depart="45.00" departLane="E_in_1" departPos="116.63" departSpeed="6.10" departDelay="0.91" arrival="73.00" arrivalLane="N_out_0" arrivalPos="189.60" arrivalSpeed="13.26" duration="28.00" routeLength="271.60" waitingTime="1.00" waitingCount="1" stopTime="0.00" timeLoss="7.70" rerouteNo="0" devices="vehroute_flow_11_phase1_E_right.1 tripinfo_flow_11_phase1_E_right.1" vType="moto" speedFactor="1.04" vaporized=""/>
    <tripinfo id="flow_9_phase1_E_straight.3" depart="53.00" departLane="E_in_1" departPos="165.68" departSpeed="5.39" departDelay="0.57" arrival="76.00" arrivalLane="W_out_1" arrivalPos="189.60" arrivalSpeed="11.47" duration="23.00" routeLength="234.32" waitingTime="0.00" waitingCount="0" stopTime="0.00" timeLoss="2.56" rerouteNo="0" devices="vehroute_flow_9_phase1_E_straight.3 tripinfo_flow_9_phase1_E_straight.3" vType="bus" speedFactor="0.85" vaporized=""/>
    <tripinfo id="flow_13_phase1_W_straight.2" depart="37.00" departLane="W_in_0" departPos="34.25" departSpeed="2.67" departDelay="0.67" arrival="77.00" arrivalLane="E_out_0" arrivalPos="189.60" arrivalSpeed="12.06" duration="40.00" routeLength="365.75" waitingTime="2.00" waitingCount="1" stopTime="0.00" timeLoss="10.90" rerouteNo="0" devices="vehroute_flow_13_phase1_W_straight.2 tripinfo_flow_13_phase1_W_straight.2" vType="moto" speedFactor="0.93" vaporized=""/>
    <tripinfo id="flow_13_phase1_W_straight.3" depart="55.00" departLane="W_in_0" departPos="132.62" departSpeed="5.49" departDelay="0.51" arrival="78.00" arrivalLane="E_out_0" arrivalPos="189.60" arrivalSpeed="14.28" duration="23.00" routeLength="267.38" waitingTime="0.00" waitingCount="0" stopTime="0.00" timeLoss="5.89" rerouteNo="0" devices="vehroute_flow_13_phase1_W_straight.3 tripinfo_flow_13_phase1_W_straight.3" vType="moto" speedFactor="1.20" vaporized=""/>
    <tripinfo id="flow_6_phase1_S_left.1" depart="46.00" departLane="S_in_0" departPos="69.24" departSpeed="6.06" departDelay="0.60" arrival="84.00" arrivalLane="W_out_1" arrivalPos="189.60" arrivalSpeed="14.22" duration="38.00" routeLength="329.31" waitingTime="7.00" waitingCount="1" stopTime="0.00" timeLoss="14.52" rerouteNo="0" devices="vehroute_flow_6_phase1_S_left.1 tripinfo_flow_6_phase1_S_left.1" vType="moto" speedFactor="1.05" vaporized=""/>
    <tripinfo id="flow_1_phase1_N_straight.0" depart="0.00" departLane="W_in_0" departPos="8.62" departSpeed="8.51" departDelay="0.00" arrival="85.00" arrivalLane="N_out_1" arrivalPos="189.60" arrivalSpeed="11.45" duration="85.00" routeLength="389.93" waitingTime="30.00" waitingCount="3" stopTime="0.00" timeLoss="51.13" rerouteNo="0" devices="vehroute_flow_1_phase1_N_straight.0 tripinfo_flow_1_phase1_N_straight.0" vType="bus" speedFactor="0.86" vaporized=""/>
    <tripinfo id="flow_10_phase1_E_left.1" depart="46.00" departLane="E_in_1" departPos="57.40" departSpeed="0.25" departDelay="0.54" arrival="86.00" arrivalLane="S_out_0" arrivalPos="189.60" arrivalSpeed="10.40" duration="40.00" routeLength="341.15" waitingTime="0.00" waitingCount="0" stopTime="0.00" timeLoss="6.73" rerouteNo="0" devices="vehroute_flow_10_phase1_E_left.1 tripinfo_flow_10_phase1_E_left.1" vType="truck" speedFactor="0.77" vaporized=""/>
    <tripinfo id="flow_3_phase1_N_right.1" depart="47.00" departLane="N_in_1" departPos="118.54" departSpeed="10.72" departDelay="0.61" arrival="87.00" arrivalLane="W_out_0" arrivalPos="189.60" arrivalSpeed="11.93" duration="40.00" routeLength="269.69" waitingTime="10.00" waitingCount="1" stopTime="0.00" timeLoss="16.75" rerouteNo="0" devices="vehroute_flow_3_phase1_N_right.1 tripinfo_flow_3_phase1_N_right.1" vType="moto" speedFactor="0.88" vaporized=""/>
    <tripinfo id="flow_5_phase1_S_straight.3" depart="54.00" departLane="S_in_0" departPos="56.18" departSpeed="12.42" departDelay="0.14" arrival="87.00" arrivalLane="N_out_1" arrivalPos="189.60" arrivalSpeed="14.41" duration="33.00" routeLength="343.82" waitingTime="2.00" waitingCount="1" stopTime="0.00" timeLoss="9.55" rerouteNo="0" devices="vehroute_flow_5_phase1_S_straight.3 tripinfo_flow_5_phase1_S_straight.3" vType="moto" speedFactor="1.08" vaporized=""/>
    <tripinfo id="flow_2_phase1_N_left.1" depart="45.00" departLane="N_in_0" departPos="136.87" departSpeed="1.25" departDelay="0.65" arrival="88.00" arrivalLane="E_out_1" arrivalPos="189.60" arrivalSpeed="14.53" duration="43.00" routeLength="261.68" waitingTime="14.00" waitingCount="2" stopTime="0.00" timeLoss="25.46" rerouteNo="0" devices="vehroute_flow_2_phase1_N_left.1 tripinfo_flow_2_phase1_N_left.1" vType="moto" speedFactor="1.12" vaporized=""/>
    <tripinfo id="flow_7_phase1_S_right.1" depart="45.00" departLane="S_in_1" departPos="40.26" departSpeed="3.16" departDelay="0.90" arrival="95.00" arrivalLane="E_out_0" arrivalPos="189.60" arrivalSpeed="10.60" duration="50.00" routeLength="347.97" waitingTime="0.00" waitingCount="0" stopTime="0.00" timeLoss="16.74" rerouteNo="0" devices="vehroute_flow_7_phase1_S_right.1 tripinfo_flow_7_phase1_S_right.1" vType="container" speedFactor="0.78" vaporized=""/>
    <tripinfo id="flow_1_phase1_N_straight.1" depart="19.00" departLane="W_in_1" departPos="34.76" departSpeed="2.69" departDelay="0.66" arrival="101.00" arrivalLane="N_out_1" arrivalPos="189.60" arrivalSpeed="15.37" duration="82.00" routeLength="363.79" waitingTime="39.00" waitingCount="4" stopTime="0.00" timeLoss="58.48" rerouteNo="0" devices="vehroute_flow_1_phase1_N_straight.1 tripinfo_flow_1_phase1_N_straight.1" vType="moto" speedFactor="1.19" vaporized=""/>
    <tripinfo id="flow_9_phase1_E_straight.4" depart="70.00" departLane="E_in_1" departPos="135.04" departSpeed="3.72" departDelay="0.10" arrival="101.00" arrivalLane="W_out_0" arrivalPos="189.60" arrivalSpeed="13.23" duration="31.00" routeLength="264.96" waitingTime="0.00" waitingCount="0" stopTime="0.00" timeLoss="10.33" rerouteNo="0" devices="vehroute_flow_9_phase1_E_straight.4 tripinfo_flow_9_phase1_E_straight.4" vType="bus" speedFactor="0.95" vaporized=""/>
    <tripinfo id="flow_13_phase1_W_straight.4" depart="73.00" departLane="W_in_0" departPos="91.01" departSpeed="4.49" departDelay="0.34" arrival="103.00" arrivalLane="E_out_0" arrivalPos="189.60" arrivalSpeed="11.93" duration="30.00" routeLength="308.99" waitingTime="0.00" waitingCount="0" stopTime="0.00" timeLoss="3.71" rerouteNo="0" devices="vehroute_flow_13_phase1_W_straight.4 tripinfo_flow_13_phase1_W_straight.4" vType="bus" speedFactor="0.87" vaporized=""/>
    <tripinfo id="flow_1_phase1_N_straight.2" depart="37.00" departLane="W_in_0" departPos="16.31" departSpeed="4.55" departDelay="0.31" arrival="109.00" arrivalLane="N_out_1" arrivalPos="189.60" arrivalSpeed="12.73" duration="72.00" routeLength="382.24" waitingTime="15.00" waitingCount="2" stopTime="0.00" timeLoss="42.14" rerouteNo="0" devices="vehroute_flow_1_phase1_N_straight.2 tripinfo_flow_1_phase1_N_straight.2" vType="bus" speedFactor="0.97" vaporized=""/>
    <tripinfo id="flow_11_phase1_E_right.2" depart="89.00" departLane="E_in_1" departPos="112.37" departSpeed="10.40" departDelay="0.82" arrival="111.00" arrivalLane="N_out_0" arrivalPos="189.60" arrivalSpeed="14.92" duration="22.00" routeLength="275.86" waitingTime="0.00" waitingCount="0" stopTime="0.00" timeLoss="2.64" rerouteNo="0" devices="vehroute_flow_11_phase1_E_right.2 tripinfo_flow_11_phase1_E_right.2" vType="emergency" speedFactor="1.10" vaporized=""/>
    <tripinfo id="flow_15_phase1_W_right.2" depart="90.00" departLane="W_in_1" departPos="89.17" departSpeed="11.39" departDelay="0.87" arrival="115.00" arrivalLane="S_out_0" arrivalPos="189.60" arrivalSpeed="13.89" duration="25.00" routeLength="299.06" waitingTime="0.00" waitingCount="0" stopTime="0.00" timeLoss="3.15" rerouteNo="0" devices="vehroute_flow_15_phase1_W_right.2 tripinfo_flow_15_phase1_W_right.2" vType="moto" speedFactor="1.03" vaporized=""/>
    <tripinfo id="flow_9_phase1_E_straight.5" depart="88.00" departLane="E_in_1" departPos="29.12" departSpeed="12.08" departDelay="0.62" arrival="116.00" arrivalLane="W_out_1" arrivalPos="189.60" arrivalSpeed="13.79" duration="28.00" routeLength="370.88" waitingTime="0.00" waitingCount="0" stopTime="0.00" timeLoss="1.25" rerouteNo="0" devices="vehroute_flow_9_phase1_E_straight.5 tripinfo_flow_9_phase1_E_straight.5" vType="moto" speedFactor="1.03" vaporized=""/>
    <tripinfo id="flow_3_phase1_N_right.2" depart="93.00" departLane="N_in_1" departPos="84.66" departSpeed="2.35" departDelay="0.22" arrival="119.00" arrivalLane="W_out_0" arrivalPos="189.60" arrivalSpeed="15.22" duration="26.00" routeLength="303.57" waitingTime="0.00" waitingCount="0" stopTime="0.00" timeLoss="5.14" rerouteNo="0" devices="vehroute_flow_3_phase1_N_right.2 tripinfo_flow_3_phase1_N_right.2" vType="moto" speedFactor="1.10" vaporized=""/>
    <tripinfo id="flow_8_phase1_S_uturn.1" depart="90.00" departLane="S_in_1" departPos="168.21" departSpeed="11.63" departDelay="0.53" arrival="123.00" arrivalLane="S_out_1" arrivalPos="189.60" arrivalSpeed="12.00" duration="33.00" routeLength="215.66" waitingTime="7.00" waitingCount="1" stopTime="0.00" timeLoss="14.24" rerouteNo="0" devices="vehroute_flow_8_phase1_S_uturn.1 tripinfo_flow_8_phase1_S_uturn.1" vType="moto" speedFactor="0.89" vaporized=""/>
    <tripinfo id="flow_7_phase1_S_right.2" depart="89.00" departLane="S_in_0" departPos="52.57" departSpeed="9.36" departDelay="0.80" arrival="126.00" arrivalLane="E_out_0" arrivalPos="189.60" arrivalSpeed="15.54" duration="37.00" routeLength="335.66" waitingTime="4.00" waitingCount="1" stopTime="0.00" timeLoss="14.12" rerouteNo="0" devices="vehroute_flow_7_phase1_S_right.2 tripinfo_flow_7_phase1_S_right.2" vType="moto" speedFactor="1.14" vaporized=""/>
    <tripinfo id="flow_5_phase1_S_straight.4" depart="72.00" departLane="S_in_0" departPos="26.76" departSpeed="9.62" departDelay="0.18" arrival="128.00" arrivalLane="N_out_0" arrivalPos="189.60" arrivalSpeed="12.95" duration="56.00" routeLength="373.24" waitingTime="15.00" waitingCount="1" stopTime="0.00" timeLoss="27.89" rerouteNo="0" devices="vehroute_flow_5_phase1_S_straight.4 tripinfo_flow_5_phase1_S_straight.4" vType="container" speedFactor="0.97" vaporized=""/>
    <tripinfo id="flow_6_phase1_S_left.2" depart="91.00" departLane="S_in_1" departPos="92.22" departSpeed="0.17" departDelay="0.20" arrival="128.00" arrivalLane="W_out_1" arrivalPos="189.60" arrivalSpeed="14.53" duration="37.00" routeLength="306.33" waitingTime="2.00" waitingCount="2" stopTime="0.00" timeLoss="15.44" rerouteNo="0" devices="vehroute_flow_6_phase1_S_left.2 tripinfo_flow_6_phase1_S_left.2" vType="moto" speedFactor="1.07" vaporized=""/>
    <tripinfo id="flow_14_phase1_W_left.1" depart="47.00" departLane="W_in_1" departPos="80.60" departSpeed="6.26" departDelay="0.22" arrival="130.00" arrivalLane="N_out_1" arrivalPos="189.60" arrivalSpeed="12.17" duration="83.00" routeLength="317.95" waitingTime="16.00" waitingCount="4" stopTime="0.00" timeLoss="56.45" rerouteNo="0" devices="vehroute_flow_14_phase1_W_left.1 tripinfo_flow_14_phase1_W_left.1" vType="container" speedFactor="0.91" vaporized=""/>
    <tripinfo id="flow_5_phase1_S_straight.5" depart="90.00" departLane="S_in_0" departPos="104.14" departSpeed="10.86" departDelay="0.23" arrival="132.00" arrivalLane="N_out_1" arrivalPos="189.60" arrivalSpeed="12.31" duration="42.00" routeLength="295.86" waitingTime="4.00" waitingCount="2" stopTime="0.00" timeLoss="19.07" rerouteNo="0" devices="vehroute_flow_5_phase1_S_straight.5 tripinfo_flow_5_phase1_S_straight.5" vType="moto" speedFactor="0.95" vaporized=""/>
    <tripinfo id="flow_12_phase1_E_uturn.1" depart="90.00" departLane="S_in_0" departPos="31.76" departSpeed="11.77" departDelay="0.68" arrival="133.00" arrivalLane="N_out_1" arrivalPos="189.60" arrivalSpeed="12.07" duration="43.00" routeLength="368.24" waitingTime="0.00" waitingCount="0" stopTime="0.00" timeLoss="14.64" rerouteNo="0" devices="vehroute_flow_12_phase1_E_uturn.1 tripinfo_flow_12_phase1_E_uturn.1" vType="moto" speedFactor="0.94" vaporized=""/>
    <tripinfo id="flow_5_phase1_S_straight.6" depart="108.00" departLane="S_in_1" departPos="21.74" departSpeed="12.05" departDelay="0.28" arrival="135.00" arrivalLane="N_out_1" arrivalPos="189.60" arrivalSpeed="14.67" duration="27.00" routeLength="378.26" waitingTime="0.00" waitingCount="0" stopTime="0.00" timeLoss="1.39" rerouteNo="0" devices="vehroute_flow_5_phase1_S_straight.6 tripinfo_flow_5_phase1_S_straight.6" vType="moto" speedFactor="1.10" vaporized=""/>
    <tripinfo id="flow_4_phase1_N_uturn.1" depart="90.00" departLane="N_in_1" departPos="162.40" departSpeed="1.34" departDelay="0.37" arrival="143.00" arrivalLane="N_out_1" arrivalPos="189.60" arrivalSpeed="12.90" duration="53.00" routeLength="221.47" waitingTime="20.00" waitingCount="2" stopTime="0.00" timeLoss="34.11" rerouteNo="0" devices="vehroute_flow_4_phase1_N_uturn.1 tripinfo_flow_4_phase1_N_uturn.1" vType="truck" speedFactor="0.94" vaporized=""/>
    <tripinfo id="flow_13_phase1_W_straight.5" depart="91.00" departLane="W_in_1" departPos="74.60" departSpeed="11.83" departDelay="0.18" arrival="144.00" arrivalLane="E_out_0" arrivalPos="189.60" arrivalSpeed="13.97" duration="53.00" routeLength="325.40" waitingTime="19.00" waitingCount="1" stopTime="0.00" timeLoss="30.14" rerouteNo="0" devices="vehroute_flow_13_phase1_W_straight.5 tripinfo_flow_13_phase1_W_straight.5" vType="moto" speedFactor="1.04" vaporized=""/>
    <tripinfo id="flow_9_phase1_E_straight.6" depart="105.00" departLane="E_in_1" departPos="109.89" departSpeed="2.24" departDelay="0.14" arrival="144.00" arrivalLane="W_out_0" arrivalPos="189.60" arrivalSpeed="12.98" duration="39.00" routeLength="290.11" waitingTime="9.00" waitingCount="1" stopTime="0.00" timeLoss="18.48" rerouteNo="0" devices="vehroute_flow_9_phase1_E_straight.6 tripinfo_flow_9_phase1_E_straight.6" vType="moto" speedFactor="1.02" vaporized=""/>
    <tripinfo id="flow_1_phase1_N_straight.3" depart="56.00" departLane="W_in_0" departPos="125.48" departSpeed="6.79" departDelay="0.97" arrival="147.00" arrivalLane="N_out_1" arrivalPos="189.60" arrivalSpeed="13.57" duration="91.00" routeLength="273.07" waitingTime="32.00" waitingCount="6" stopTime="0.00" timeLoss="71.11" rerouteNo="0" devices="vehroute_flow_1_phase1_N_straight.3 tripinfo_flow_1_phase1_N_straight.3" vType="car" speedFactor="1.05" vaporized=""/>
    <tripinfo id="flow_13_phase1_W_straight.6" depart="109.00" departLane="W_in_0" departPos="43.18" departSpeed="3.07" departDelay="0.02" arrival="147.00" arrivalLane="E_out_0" arrivalPos="189.60" arrivalSpeed="13.48" duration="38.00" routeLength="356.82" waitingTime="2.00" waitingCount="1" stopTime="0.00" timeLoss="10.79" rerouteNo="0" devices="vehroute_flow_13_phase1_W_straight.6 tripinfo_flow_13_phase1_W_straight.6" vType="car" speedFactor="0.98" vaporized=""/>
    <tripinfo id="flow_10_phase1_E_left.2" depart="91.00" departLane="E_in_1" departPos="21.68" departSpeed="6.53" departDelay="0.07" arrival="148.00" arrivalLane="S_out_1" arrivalPos="189.60" arrivalSpeed="15.61" duration="57.00" routeLength="376.87" waitingTime="21.00" waitingCount="2" stopTime="0.00" timeLoss="32.49" rerouteNo="0" devices="vehroute_flow_10_phase1_E_left.2 tripinfo_flow_10_phase1_E_left.2" vType="moto" speedFactor="1.14" vaporized=""/>
    <tripinfo id="flow_9_phase1_E_straight.7" depart="123.00" departLane="E_in_0" departPos="36.12" departSpeed="6.53" departDelay="0.67" arrival="151.00" arrivalLane="W_out_0" arrivalPos="189.60" arrivalSpeed="12.83" duration="28.00" routeLength="363.88" waitingTime="0.00" waitingCount="0" stopTime="0.00" timeLoss="2.02" rerouteNo="0" devices="vehroute_flow_9_phase1_E_straight.7 tripinfo_flow_9_phase1_E_straight.7" vType="moto" speedFactor="1.01" vaporized=""/>
    <tripinfo id="flow_5_phase1_S_straight.7" depart="126.00" departLane="S_in_1" departPos="41.83" departSpeed="11.82" departDelay="0.32" arrival="159.00" arrivalLane="N_out_0" arrivalPos="189.60" arrivalSpeed="12.22" duration="33.00" routeLength="358.17" waitingTime="0.00" waitingCount="0" stopTime="0.00" timeLoss="4.26" rerouteNo="0" devices="vehroute_flow_5_phase1_S_straight.7 tripinfo_flow_5_phase1_S_straight.7" vType="bus" speedFactor="0.90" vaporized=""/>
    <tripinfo id="flow_3_phase1_N_right.3" depart="140.00" departLane="N_in_0" departPos="178.62" departSpeed="7.30" departDelay="0.83" arrival="160.00" arrivalLane="W_out_0" arrivalPos="189.60" arrivalSpeed="13.27" duration="20.00" routeLength="209.61" waitingTime="0.00" waitingCount="0" stopTime="0.00" timeLoss="3.13" rerouteNo="0" devices="vehroute_flow_3_phase1_N_right.3 tripinfo_flow_3_phase1_N_right.3" vType="moto" speedFactor="0.96" vaporized=""/>
    <tripinfo id="flow_1_phase1_N_straight.4" depart="74.00" departLane="W_in_0" departPos="128.04" departSpeed="4.99" departDelay="0.62" arrival="162.00" arrivalLane="N_out_1" arrivalPos="189.60" arrivalSpeed="12.09" duration="88.00" routeLength="270.51" waitingTime="25.00" waitingCount="5" stopTime="0.00" timeLoss="65.41" rerouteNo="0" devices="vehroute_flow_1_phase1_N_straight.4 tripinfo_flow_1_phase1_N_straight.4" vType="truck" speedFactor="0.92" vaporized=""/>
    <tripinfo id="flow_7_phase1_S_right.3" depart="133.00" departLane="S_in_1" departPos="22.64" departSpeed="11.00" departDelay="0.70" arrival="162.00" arrivalLane="E_out_0" arrivalPos="189.60" arrivalSpeed="13.94" duration="29.00" routeLength="365.59" waitingTime="0.00" waitingCount="0" stopTime="0.00" timeLoss="3.43" rerouteNo="0" devices="vehroute_flow_7_phase1_S_right.3 tripinfo_flow_7_phase1_S_right.3" vType="moto" speedFactor="1.07" vaporized=""/>
    <tripinfo id="flow_5_phase1_S_straight.8" depart="144.00" departLane="S_in_0" departPos="144.29" departSpeed="4.78" departDelay="0.37" arrival="162.00" arrivalLane="N_out_0" arrivalPos="189.60" arrivalSpeed="15.13" duration="18.00" routeLength="255.71" waitingTime="0.00" waitingCount="0" stopTime="0.00" timeLoss="1.80" rerouteNo="0" devices="vehroute_flow_5_phase1_S_straight.8 tripinfo_flow_5_phase1_S_straight.8" vType="emergency" speedFactor="1.14" vaporized=""/>
    <tripinfo id="flow_2_phase1_N_left.2" depart="89.00" departLane="N_in_0" departPos="125.76" departSpeed="4.77" departDelay="0.30" arrival="163.00" arrivalLane="E_out_1" arrivalPos="189.60" arrivalSpeed="13.37" duration="74.00" routeLength="272.79" waitingTime="33.00" waitingCount="4" stopTime="0.00" timeLoss="53.13" rerouteNo="0" devices="vehroute_flow_2_phase1_N_left.2 tripinfo_flow_2_phase1_N_left.2" vType="moto" speedFactor="1.00" vaporized=""/>
    <tripinfo id="flow_15_phase1_W_right.3" depart="134.00" departLane="W_in_0" departPos="36.14" departSpeed="9.67" departDelay="0.31" arrival="169.00" arrivalLane="S_out_0" arrivalPos="189.60" arrivalSpeed="15.10" duration="35.00" routeLength="352.09" waitingTime="5.00" waitingCount="1" stopTime="0.00" timeLoss="12.19" rerouteNo="0" devices="vehroute_flow_15_phase1_W_right.3 tripinfo_flow_15_phase1_W_right.3" vType="moto" speedFactor="1.17" vaporized=""/>