<?xml version="1.0" encoding="UTF-8"?>

<!-- generated on 2025-12-09 22:51:43 by Eclipse SUMO sumo Version 1.18.0
<configuration xmlns:xsi="http://www.w3.org/2001/XMLSchema-instance" xsi:noNamespaceSchemaLocation="http://sumo.dlr.de/xsd/sumoConfiguration.xsd">

    <input>
        <net-file value="/workspace/nets/60p2k/net.net.xml"/>
        <route-files value="/workspace/nets/60p2k/route_temp_612_137971484654080_15553294.rou.xml"/>
    </input>

    <output>
        <summary-output value="results/summary_ep_3.xml"/>
        <tripinfo-output value="results/tripinfo_ep_3.xml"/>
        <vehroute-output value="results/vehroute_ep_3.xml"/>
    </output>

    <time>
        <begin value="0"/>
    </time>

    <report>
        <verbose value="true"/>
        <no-step-log value="true"/>
    </report>

    <traci_server>
        <remote-port value="54419"/>
    </traci_server>

    <gui_only>
        <gui-settings-file value="/workspace/nets/60p2k/gui-settings.xml"/>
        <quit-on-end value="true"/>
    </gui_only>

</configuration>
-->

<tripinfos xmlns:xsi="http://www.w3.org/2001/XMLSchema-instance" xsi:noNamespaceSchemaLocation="http://sumo.dlr.de/xsd/tripinfo_file.xsd">
    <tripinfo id="flow_3_phase1_N_right.0" depart="0.00" departLane="N_in_0" departPos="103.38" departSpeed="3.75" departDelay="0.00" arrival="24.00" arrivalLane="W_out_0" arrivalPos="189.60" arrivalSpeed="14.93" duration="24.00" routeLength="284.85" waitingTime="0.00" waitingCount="0" stopTime="0.00" timeLoss="4.48" rerouteNo="0" devices="vehroute_flow_3_phase1_N_right.0 tripinfo_flow_3_phase1_N_right.0" vType="car" speedFactor="1.09" vaporized=""/>
    <tripinfo id="flow_8_phase1_S_uturn.0" depart="0.00" departLane="S_in_0" departPos="120.11" departSpeed="4.48" departDelay="0.00" arrival="24.00" arrivalLane="S_out_1" arrivalPos="189.60" arrivalSpeed="13.35" duration="24.00" routeLength="263.76" waitingTime="0.00" waitingCount="0" stopTime="0.00" timeLoss="4.90" rerouteNo="0" devices="vehroute_flow_8_phase1_S_uturn.0 tripinfo_flow_8_phase1_S_uturn.0" vType="moto" speedFactor="1.05" vaporized=""/>
    <tripinfo id="flow_5_phase1_S_straight.0" depart="0.00" departLane="S_in_1" departPos="107.37" departSpeed="7.21" departDelay="0.00" arrival="25.00" arrivalLane="N_out_1" arrivalPos="189.60" arrivalSpeed="15.54" duration="25.00" routeLength="292.63" waitingTime="0.00" waitingCount="0" stopTime="0.00" timeLoss="6.40" rerouteNo="0" devices="vehroute_flow_5_phase1_S_straight.0 tripinfo_flow_5_phase1_S_straight.0" vType="moto" speedFactor="1.15" vaporized=""/>
    <tripinfo id="flow_6_phase1_S_left.0" depart="0.00" departLane="S_in_1" departPos="166.01" departSpeed="0.74" departDelay="0.00" arrival="25.00" arrivalLane="W_out_1" arrivalPos="189.60" arrivalSpeed="11.57" duration="25.00" routeLength="232.54" waitingTime="0.00" waitingCount="0" stopTime="0.00" timeLoss="4.35" rerouteNo="0" devices="vehroute_flow_6_phase1_S_left.0 tripinfo_flow_6_phase1_S_left.0" vType="moto" speedFactor="0.88" vaporized=""/>
    <tripinfo id="flow_4_phase1_N_uturn.0" depart="0.00" departLane="N_in_1" departPos="127.60" departSpeed="0.08" departDelay="0.00" arrival="32.00" arrivalLane="N_out_1" arrivalPos="189.60" arrivalSpeed="11.78" duration="32.00" routeLength="256.27" waitingTime="2.00" waitingCount="1" stopTime="0.00" timeLoss="10.48" rerouteNo="0" devices="vehroute_flow_4_phase1_N_uturn.0 tripinfo_flow_4_phase1_N_uturn.0" vType="car" speedFactor="0.92" vaporized=""/>
    <tripinfo id="flow_16_phase1_W_uturn.0" depart="0.00" departLane="W_in_0" departPos="135.67" departSpeed="9.64" departDelay="0.00" arrival="36.00" arrivalLane="W_out_1" arrivalPos="189.60" arrivalSpeed="14.32" duration="36.00" routeLength="248.20" waitingTime="11.00" waitingCount="1" stopTime="0.00" timeLoss="17.04" rerouteNo="0" devices="vehroute_flow_16_phase1_W_uturn.0 tripinfo_flow_16_phase1_W_uturn.0" vType="moto" speedFactor="1.04" vaporized=""/>
    <tripinfo id="flow_15_phase1_W_right.0" depart="0.00" departLane="W_in_1" departPos="153.90" departSpeed="6.73" departDelay="0.00" arrival="39.00" arrivalLane="S_out_0" arrivalPos="189.60" arrivalSpeed="10.76" duration="39.00" routeLength="234.33" waitingTime="12.00" waitingCount="1" stopTime="0.00" timeLoss="17.70" rerouteNo="0" devices="vehroute_flow_15_phase1_W_right.0 tripinfo_flow_15_phase1_W_right.0" vType="moto" speedFactor="0.85" vaporized=""/>
    <tripinfo id="flow_9_phase1_E_straight.0" depart="0.00" departLane="E_in_0" departPos="168.29" departSpeed="9.83" departDelay="0.00" arrival="41.00" arrivalLane="W_out_0" arrivalPos="189.60" arrivalSpeed="12.37" duration="41.00" routeLength="231.71" waitingTime="11.00" waitingCount="1" stopTime="0.00" timeLoss="21.78" rerouteNo="0" devices="vehroute_flow_9_phase1_E_straight.0 tripinfo_flow_9_phase1_E_straight.0" vType="truck" speedFactor="0.90" vaporized=""/>
    <tripinfo id="flow_1_phase1_N_straight.1" depart="19.00" departLane="W_in_1" departPos="181.05" departSpeed="2.43" departDelay="0.66" arrival="41.00" arrivalLane="S_out_0" arrivalPos="189.60" arrivalSpeed="15.58" duration="22.00" routeLength="207.18" waitingTime="2.00" waitingCount="1" stopTime="0.00" timeLoss="8.47" rerouteNo="0" devices="vehroute_flow_1_phase1_N_straight.1 tripinfo_flow_1_phase1_N_straight.1" vType="moto" speedFactor="1.19" vaporized=""/>
    <tripinfo id="flow_11_phase1_E_right.0" depart="0.00" departLane="E_in_1" departPos="144.95" departSpeed="4.02" departDelay="0.00" arrival="42.00" arrivalLane="N_out_0" arrivalPos="189.60" arrivalSpeed="12.61" duration="42.00" routeLength="243.28" waitingTime="10.00" waitingCount="1" stopTime="0.00" timeLoss="22.11" rerouteNo="0" devices="vehroute_flow_11_phase1_E_right.0 tripinfo_flow_11_phase1_E_right.0" vType="bus" speedFactor="0.96" vaporized=""/>
    <tripinfo id="flow_14_phase1_W_left.0" depart="0.00" departLane="W_in_1" departPos="42.31" departSpeed="3.71" departDelay="0.00" arrival="42.00" arrivalLane="N_out_1" arrivalPos="189.60" arrivalSpeed="13.44" duration="42.00" routeLength="356.24" waitingTime="3.00" waitingCount="1" stopTime="0.00" timeLoss="15.19" rerouteNo="0" devices="vehroute_flow_14_phase1_W_left.0 tripinfo_flow_14_phase1_W_left.0" vType="moto" speedFactor="1.01" vaporized=""/>
    <tripinfo id="flow_13_phase1_W_straight.0" depart="0.00" departLane="W_in_0" departPos="77.99" departSpeed="3.79" departDelay="0.00" arrival="45.00" arrivalLane="E_out_0" arrivalPos="189.60" arrivalSpeed="10.86" duration="45.00" routeLength="322.01" waitingTime="1.00" waitingCount="1" stopTime="0.00" timeLoss="16.84" rerouteNo="0" devices="vehroute_flow_13_phase1_W_straight.0 tripinfo_flow_13_phase1_W_straight.0" vType="container" speedFactor="0.82" vaporized=""/>
    <tripinfo id="flow_9_phase1_E_straight.1" depart="18.00" departLane="E_in_0" departPos="93.39" departSpeed="3.73" departDelay="0.52" arrival="46.00" arrivalLane="W_out_0" arrivalPos="189.60" arrivalSpeed="11.41" duration="28.00" routeLength="306.61" waitingTime="0.00" waitingCount="0" stopTime="0.00" timeLoss="2.48" rerouteNo="0" devices="vehroute_flow_9_phase1_E_straight.1 tripinfo_flow_9_phase1_E_straight.1" vType="moto" speedFactor="0.87" vaporized=""/>
    <tripinfo id="flow_5_phase1_S_straight.1" depart="18.00" departLane="S_in_1" departPos="177.29" departSpeed="8.41" departDelay="0.05" arrival="48.00" arrivalLane="N_out_1" arrivalPos="189.60" arrivalSpeed="15.72" duration="30.00" routeLength="222.71" waitingTime="8.00" waitingCount="1" stopTime="0.00" timeLoss="15.24" rerouteNo="0" devices="vehroute_flow_5_phase1_S_straight.1 tripinfo_flow_5_phase1_S_straight.1" vType="moto" speedFactor="1.16" vaporized=""/>
    <tripinfo id="flow_10_phase1_E_left.0" depart="0.00" departLane="E_in_0" departPos="44.88" departSpeed="7.69" departDelay="0.00" arrival="49.00" arrivalLane="S_out_1" arrivalPos="189.60" arrivalSpeed="13.74" duration="49.00" routeLength="353.67" waitingTime="7.00" waitingCount="2" stopTime="0.00" timeLoss="23.24" rerouteNo="0" devices="vehroute_flow_10_phase1_E_left.0 tripinfo_flow_10_phase1_E_left.0" vType="truck" speedFactor="1.02" vaporized=""/>
    <tripinfo id="flow_2_phase1_N_left.0" depart="0.00" departLane="N_in_1" departPos="8.27" departSpeed="8.33" departDelay="0.00" arrival="53.00" arrivalLane="E_out_1" arrivalPos="189.60" arrivalSpeed="13.22" duration="53.00" routeLength="390.28" waitingTime="15.00" waitingCount="2" stopTime="0.00" timeLoss="23.91" rerouteNo="0" devices="vehroute_flow_2_phase1_N_left.0 tripinfo_flow_2_phase1_N_left.0" vType="moto" speedFactor="1.02" vaporized=""/>
    <tripinfo id="flow_7_phase1_S_right.0" depart="0.00" departLane="S_in_0" departPos="8.76" departSpeed="8.07" departDelay="0.00" arrival="57.00" arrivalLane="E_out_0" arrivalPos="189.60" arrivalSpeed="11.50" duration="57.00" routeLength="379.47" waitingTime="12.00" waitingCount="1" stopTime="0.00" timeLoss="23.21" rerouteNo="0" devices="vehroute_flow_7_phase1_S_right.0 tripinfo_flow_7_phase1_S_right.0" vType="container" speedFactor="0.85" vaporized=""/>
    <tripinfo id="flow_13_phase1_W_straight.1" depart="19.00" departLane="W_in_1" departPos="28.79" departSpeed="10.01" departDelay="0.84" arrival="61.00" arrivalLane="E_out_1" arrivalPos="189.60" arrivalSpeed="14.86" duration="42.00" routeLength="371.21" waitingTime="11.00" waitingCount="1" stopTime="0.00" timeLoss="17.25" rerouteNo="0" devices="vehroute_flow_13_phase1_W_straight.1 tripinfo_flow_13_phase1_W_straight.1" vType="car" speedFactor="1.12" vaporized=""/>
    <tripinfo id="flow_9_phase1_E_straight.2" depart="35.00" departLane="E_in_1" departPos="103.67" departSpeed="3.85" departDelay="0.05" arrival="63.00" arrivalLane="W_out_0" arrivalPos="189.60" arrivalSpeed="12.53" duration="28.00" routeLength="296.33" waitingTime="0.00" waitingCount="0" stopTime="0.00" timeLoss="6.25" rerouteNo="0" devices="vehroute_flow_9_phase1_E_straight.2 tripinfo_flow_9_phase1_E_straight.2" vType="moto" speedFactor="0.99" vaporized=""/>
    <tripinfo id="flow_1_phase1_N_straight.0" depart="0.00" departLane="W_in_0" departPos="8.62" departSpeed="8.51" departDelay="0.00" arrival="67.00" arrivalLane="S_out_0" arrivalPos="189.60" arrivalSpeed="11.29" duration="67.00" routeLength="379.61" waitingTime="14.00" waitingCount="1" stopTime="0.00" timeLoss="33.54" rerouteNo="0" devices="vehroute_flow_1_phase1_N_straight.0 tripinfo_flow_1_phase1_N_straight.0" vType="bus" speedFactor="0.86" vaporized=""/>
    <tripinfo id="flow_13_phase1_W_straight.2" depart="37.00" departLane="W_in_1" departPos="39.28" departSpeed="7.32" departDelay="0.67" arrival="69.00" arrivalLane="E_out_1" arrivalPos="189.60" arrivalSpeed="12.36" duration="32.00" routeLength="360.72" waitingTime="0.00" waitingCount="0" stopTime="0.00" timeLoss="3.77" rerouteNo="0" devices="vehroute_flow_13_phase1_W_straight.2 tripinfo_flow_13_phase1_W_straight.2" vType="moto" speedFactor="0.93" vaporized=""/>
    <tripinfo id="flow_1_phase1_N_straight.2" depart="37.00" departLane="W_in_1" departPos="64.28" departSpeed="4.21" departDelay="0.31" arrival="70.00" arrivalLane="S_out_0" arrivalPos="189.60" arrivalSpeed="13.39" duration="33.00" routeLength="323.95" waitingTime="0.00" waitingCount="0" stopTime="0.00" timeLoss="7.54" rerouteNo="0" devices="vehroute_flow_1_phase1_N_straight.2 tripinfo_flow_1_phase1_N_straight.2" vType="bus" speedFactor="0.97" vaporized=""/>
    <tripinfo id="flow_11_phase1_E_right.1" depart="45.00" departLane="E_in_0" departPos="80.24" departSpeed="9.78" departDelay="0.91" arrival="71.00" arrivalLane="N_out_0" arrivalPos="189.60" arrivalSpeed="14.09" duration="26.00" routeLength="307.99" waitingTime="0.00" waitingCount="0" stopTime="0.00" timeLoss="3.40" rerouteNo="0" devices="vehroute_flow_11_phase1_E_right.1 tripinfo_flow_11_phase1_E_right.1" vType="moto" speedFactor="1.04" vaporized=""/>
    <tripinfo id="flow_12_phase1_E_uturn.0" depart="0.00" departLane="E_in_0" departPos="5.65" departSpeed="13.76" departDelay="0.00" arrival="72.00" arrivalLane="E_out_1" arrivalPos="189.60" arrivalSpeed="13.88" duration="72.00" routeLength="378.22" waitingTime="25.00" waitingCount="4" stopTime="0.00" timeLoss="44.60" rerouteNo="0" devices="vehroute_flow_12_phase1_E_uturn.0 tripinfo_flow_12_phase1_E_uturn.0" vType="moto" speedFactor="1.03" vaporized=""/>
    <tripinfo id="flow_15_phase1_W_right.1" depart="45.00" departLane="W_in_1" departPos="97.23" departSpeed="5.84" departDelay="0.44" arrival="72.00" arrivalLane="S_out_0" arrivalPos="189.60" arrivalSpeed="14.77" duration="27.00" routeLength="291.00" waitingTime="0.00" waitingCount="0" stopTime="0.00" timeLoss="6.30" rerouteNo="0" devices="vehroute_flow_15_phase1_W_right.1 tripinfo_flow_15_phase1_W_right.1" vType="moto" speedFactor="1.08" vaporized=""/>
    <tripinfo id="flow_13_phase1_W_straight.3" depart="55.00" departLane="W_in_0" departPos="65.01" departSpeed="6.58" departDelay="0.51" arrival="78.00" arrivalLane="E_out_0" arrivalPos="189.60" arrivalSpeed="15.31" duration="23.00" routeLength="334.99" waitingTime="0.00" waitingCount="0" stopTime="0.00" timeLoss="1.96" rerouteNo="0" devices="vehroute_flow_13_phase1_W_straight.3 tripinfo_flow_13_phase1_W_straight.3" vType="moto" speedFactor="1.20" vaporized=""/>
    <tripinfo id="flow_9_phase1_E_straight.3" depart="53.00" departLane="E_in_0" departPos="86.42" departSpeed="8.41" departDelay="0.57" arrival="81.00" arrivalLane="W_out_0" arrivalPos="189.60" arrivalSpeed="11.26" duration="28.00" routeLength="313.58" waitingTime="0.00" waitingCount="0" stopTime="0.00" timeLoss="1.32" rerouteNo="0" devices="vehroute_flow_9_phase1_E_straight.3 tripinfo_flow_9_phase1_E_straight.3" vType="bus" speedFactor="0.85" vaporized=""/>
    <tripinfo id="flow_1_phase1_N_straight.3" depart="56.00" departLane="W_in_1" departPos="88.42" departSpeed="1.48" departDelay="0.97" arrival="83.00" arrivalLane="S_out_0" arrivalPos="189.60" arrivalSpeed="14.51" duration="27.00" routeLength="299.81" waitingTime="0.00" waitingCount="0" stopTime="0.00" timeLoss="5.09" rerouteNo="0" devices="vehroute_flow_1_phase1_N_straight.3 tripinfo_flow_1_phase1_N_straight.3" vType="car" speedFactor="1.05" vaporized=""/>
    <tripinfo id="flow_10_phase1_E_left.1" depart="46.00" departLane="E_in_0" departPos="4.52" departSpeed="10.41" departDelay="0.54" arrival="90.00" arrivalLane="S_out_0" arrivalPos="189.60" arrivalSpeed="10.48" duration="44.00" routeLength="394.03" waitingTime="0.00" waitingCount="0" stopTime="0.00" timeLoss="5.42" rerouteNo="0" devices="vehroute_flow_10_phase1_E_left.1 tripinfo_flow_10_phase1_E_left.1" vType="truck" speedFactor="0.77" vaporized=""/>
    <tripinfo id="flow_14_phase1_W_left.1" depart="47.00" departLane="W_in_0" departPos="93.41" departSpeed="9.16" departDelay="0.22" arrival="92.00" arrivalLane="N_out_1" arrivalPos="189.60" arrivalSpeed="12.58" duration="45.00" routeLength="305.14" waitingTime="5.00" waitingCount="1" stopTime="0.00" timeLoss="19.41" rerouteNo="0" devices="vehroute_flow_14_phase1_W_left.1 tripinfo_flow_14_phase1_W_left.1" vType="container" speedFactor="0.91" vaporized=""/>
    <tripinfo id="flow_9_phase1_E_straight.4" depart="70.00" departLane="E_in_1" departPos="53.32" departSpeed="10.34" departDelay="0.10" arrival="98.00" arrivalLane="W_out_0" arrivalPos="189.60" arrivalSpeed="13.02" duration="28.00" routeLength="346.68" waitingTime="0.00" waitingCount="0" stopTime="0.00" timeLoss="0.94" rerouteNo="0" devices="vehroute_flow_9_phase1_E_straight.4 tripinfo_flow_9_phase1_E_straight.4" vType="bus" speedFactor="0.95" vaporized=""/>
    <tripinfo id="flow_13_phase1_W_straight.4" depart="73.00" departLane="W_in_0" departPos="70.46" departSpeed="10.65" departDelay="0.34" arrival="102.00" arrivalLane="E_out_0" arrivalPos="189.60" arrivalSpeed="11.41" duration="29.00" routeLength="329.54" waitingTime="0.00" waitingCount="0" stopTime="0.00" timeLoss="0.84" rerouteNo="0" devices="vehroute_flow_13_phase1_W_straight.4 tripinfo_flow_13_phase1_W_straight.4" vType="bus" speedFactor="0.87" vaporized=""/>
    <tripinfo id="flow_6_phase1_S_left.1" depart="46.00" departLane="S_in_1" departPos="79.10" departSpeed="8.50" departDelay="0.60" arrival="106.00" arrivalLane="W_out_1" arrivalPos="189.60" arrivalSpeed="14.07" duration="60.00" routeLength="319.45" waitingTime="30.00" waitingCount="1" stopTime="0.00" timeLoss="37.45" rerouteNo="0" devices="vehroute_flow_6_phase1_S_left.1 tripinfo_flow_6_phase1_S_left.1" vType="moto" speedFactor="1.05" vaporized=""/>
    <tripinfo id="flow_5_phase1_S_straight.2" depart="36.00" departLane="S_in_0" departPos="33.93" departSpeed="0.90" departDelay="0.09" arrival="107.00" arrivalLane="N_out_0" arrivalPos="189.60" arrivalSpeed="12.93" duration="71.00" routeLength="366.07" waitingTime="35.00" waitingCount="1" stopTime="0.00" timeLoss="43.58" rerouteNo="0" devices="vehroute_flow_5_phase1_S_straight.2 tripinfo_flow_5_phase1_S_straight.2" vType="moto" speedFactor="0.96" vaporized=""/>
    <tripinfo id="flow_3_phase1_N_right.1" depart="47.00" departLane="N_in_0" departPos="166.00" departSpeed="1.28" departDelay="0.61" arrival="109.00" arrivalLane="W_out_0" arrivalPos="189.60" arrivalSpeed="11.32" duration="62.00" routeLength="222.23" waitingTime="36.00" waitingCount="1" stopTime="0.00" timeLoss="42.70" rerouteNo="0" devices="vehroute_flow_3_phase1_N_right.1 tripinfo_flow_3_phase1_N_right.1" vType="moto" speedFactor="0.88" vaporized=""/>
    <tripinfo id="flow_5_phase1_S_straight.3" depart="54.00" departLane="S_in_0" departPos="184.19" departSpeed="1.49" departDelay="0.14" arrival="109.00" arrivalLane="N_out_0" arrivalPos="189.60" arrivalSpeed="14.77" duration="55.00" routeLength="215.81" waitingTime="33.00" waitingCount="1" stopTime="0.00" timeLoss="39.74" rerouteNo="0" devices="vehroute_flow_5_phase1_S_straight.3 tripinfo_flow_5_phase1_S_straight.3" vType="moto" speedFactor="1.08" vaporized=""/>
    <tripinfo id="flow_2_phase1_N_left.1" depart="45.00" departLane="N_in_0" departPos="15.17" departSpeed="0.73" departDelay="0.65" arrival="110.00" arrivalLane="E_out_1" arrivalPos="189.60" arrivalSpeed="15.24" duration="65.00" routeLength="383.38" waitingTime="26.00" waitingCount="2" stopTime="0.00" timeLoss="39.61" rerouteNo="0" devices="vehroute_flow_2_phase1_N_left.1 tripinfo_flow_2_phase1_N_left.1" vType="moto" speedFactor="1.12" vaporized=""/>
    <tripinfo id="flow_3_phase1_N_right.2" depart="93.00" departLane="N_in_1" departPos="159.96" departSpeed="7.11" departDelay="0.22" arrival="113.00" arrivalLane="W_out_0" arrivalPos="189.60" arrivalSpeed="14.26" duration="20.00" routeLength="228.27" waitingTime="0.00" waitingCount="0" stopTime="0.00" timeLoss="3.58" rerouteNo="0" devices="vehroute_flow_3_phase1_N_right.2 tripinfo_flow_3_phase1_N_right.2" vType="moto" speedFactor="1.10" vaporized=""/>
    <tripinfo id="flow_7_phase1_S_right.2" depart="89.00" departLane="S_in_1" departPos="111.69" departSpeed="6.85" departDelay="0.80" arrival="119.00" arrivalLane="E_out_1" arrivalPos="189.60" arrivalSpeed="14.93" duration="30.00" routeLength="276.54" waitingTime="0.00" waitingCount="0" stopTime="0.00" timeLoss="11.08" rerouteNo="0" devices="vehroute_flow_7_phase1_S_right.2 tripinfo_flow_7_phase1_S_right.2" vType="moto" speedFactor="1.14" vaporized=""/>
    <tripinfo id="flow_7_phase1_S_right.1" depart="45.00" departLane="S_in_0" departPos="54.99" departSpeed="3.84" departDelay="0.90" arrival="122.00" arrivalLane="E_out_0" arrivalPos="189.60" arrivalSpeed="10.65" duration="77.00" routeLength="333.24" waitingTime="26.00" waitingCount="1" stopTime="0.00" timeLoss="45.21" rerouteNo="0" devices="vehroute_flow_7_phase1_S_right.1 tripinfo_flow_7_phase1_S_right.1" vType="container" speedFactor="0.78" vaporized=""/>
    <tripinfo id="flow_5_phase1_S_straight.4" depart="72.00" departLane="S_in_0" departPos="135.24" departSpeed="1.68" departDelay="0.18" arrival="123.00" arrivalLane="N_out_1" arrivalPos="189.60" arrivalSpeed="13.29" duration="51.00" routeLength="264.76" waitingTime="8.00" waitingCount="2" stopTime="0.00" timeLoss="30.90" rerouteNo="0" devices="vehroute_flow_5_phase1_S_straight.4 tripinfo_flow_5_phase1_S_straight.4" vType="container" speedFactor="0.97" vaporized=""/>
    <tripinfo id="flow_8_phase1_S_uturn.1" depart="90.00" departLane="S_in_1" departPos="168.21" departSpeed="0.29" departDelay="0.53" arrival="124.00" arrivalLane="S_out_1" arrivalPos="189.60" arrivalSpeed="11.09" duration="34.00" routeLength="215.66" waitingTime="1.00" waitingCount="1" stopTime="0.00" timeLoss="15.38" rerouteNo="0" devices="vehroute_flow_8_phase1_S_uturn.1 tripinfo_flow_8_phase1_S_uturn.1" vType="moto" speedFactor="0.89" vaporized=""/>
    <tripinfo id="flow_11_phase1_E_right.2" depart="89.00" departLane="E_in_1" departPos="129.09" departSpeed="5.80" departDelay="0.82" arrival="125.00" arrivalLane="N_out_0" arrivalPos="189.60" arrivalSpeed="15.12" duration="36.00" routeLength="259.14" waitingTime="12.00" waitingCount="1" stopTime="0.00" timeLoss="18.43" rerouteNo="0" devices="vehroute_flow_11_phase1_E_right.2 tripinfo_flow_11_phase1_E_right.2" vType="emergency" speedFactor="1.10" vaporized=""/>
    <tripinfo id="flow_9_phase1_E_straight.5" depart="88.00" departLane="E_in_1" departPos="160.30" departSpeed="13.98" departDelay="0.62" arrival="128.00" arrivalLane="W_out_0" arrivalPos="189.60" arrivalSpeed="13.96" duration="40.00" routeLength="239.70" waitingTime="15.00" waitingCount="1" stopTime="0.00" timeLoss="23.24" rerouteNo="0" devices="vehroute_flow_9_phase1_E_straight.5 tripinfo_flow_9_phase1_E_straight.5" vType="moto" speedFactor="1.03" vaporized=""/>
    <tripinfo id="flow_4_phase1_N_uturn.1" depart="90.00" departLane="N_in_1" departPos="162.40" departSpeed="7.49" departDelay="0.37" arrival="130.00" arrivalLane="N_out_0" arrivalPos="189.60" arrivalSpeed="12.72" duration="40.00" routeLength="221.47" waitingTime="9.00" waitingCount="1" stopTime="0.00" timeLoss="21.43" rerouteNo="0" devices="vehroute_flow_4_phase1_N_uturn.1 tripinfo_flow_4_phase1_N_uturn.1" vType="truck" speedFactor="0.94" vaporized=""/>
    <tripinfo id="flow_10_phase1_E_left.2" depart="91.00" departLane="E_in_1" departPos="21.68" departSpeed="6.53" departDelay="0.07" arrival="130.00" arrivalLane="S_out_1" arrivalPos="189.60" arrivalSpeed="15.49" duration="39.00" routeLength="376.87" waitingTime="4.00" waitingCount="1" stopTime="0.00" timeLoss="13.86" rerouteNo="0" devices="vehroute_flow_10_phase1_E_left.2 tripinfo_flow_10_phase1_E_left.2" vType="moto" speedFactor="1.14" vaporized=""/>
    <tripinfo id="flow_1_phase1_N_straight.4" depart="74.00" departLane="W_in_1" departPos="74.07" departSpeed="0.54" departDelay="0.62" arrival="131.00" arrivalLane="S_out_0" arrivalPos="189.60" arrivalSpeed="12.34" duration="57.00" routeLength="314.16" waitingTime="17.00" waitingCount="1" stopTime="0.00" timeLoss="31.31" rerouteNo="0" devices="vehroute_flow_1_phase1_N_straight.4 tripinfo_flow_1_phase1_N_straight.4" vType="truck" speedFactor="0.92" vaporized=""/>
    <tripinfo id="flow_12_phase1_E_uturn.1" depart="90.00" departLane="E_in_0" departPos="31.76" departSpeed="11.77" departDelay="0.68" arrival="131.00" arrivalLane="E_out_1" arrivalPos="189.60" arrivalSpeed="12.89" duration="41.00" routeLength="352.11" waitingTime="4.00" waitingCount="1" stopTime="0.00" timeLoss="12.58" rerouteNo="0" devices="vehroute_flow_12_phase1_E_uturn.1 tripinfo_flow_12_phase1_E_uturn.1" vType="moto" speedFactor="0.94" vaporized=""/>
    <tripinfo id="flow_1_phase1_N_straight.5" depart="92.00" departLane="W_in_1" departPos="177.50" departSpeed="6.11" departDelay="0.28" arrival="133.00" arrivalLane="S_out_0" arrivalPos="189.60" arrivalSpeed="12.03" duration="41.00" routeLength="210.73" waitingTime="18.00" waitingCount="1" stopTime="0.00" timeLoss="23.45" rerouteNo="0" devices="vehroute_flow_1_phase1_N_straight.5 tripinfo_flow_1_phase1_N_straight.5" vType="moto" speedFactor="0.90" vaporized=""/>
    <tripinfo id="flow_9_phase1_E_straight.6" depart="105.00" departLane="E_in_1" departPos="137.11" departSpeed="4.59" departDelay="0.14" arrival="133.00" arrivalLane="W_out_0" arrivalPos="189.60" arrivalSpeed="13.95" duration="28.00" routeLength="262.89" waitingTime="1.00" waitingCount="1" stopTime="0.00" timeLoss="8.76" rerouteNo="0" devices="vehroute_flow_9_phase1_E_straight.6 tripinfo_flow_9_phase1_E_straight.6" vType="moto" speedFactor="1.02" vaporized=""/>
    <tripinfo id="flow_15_phase1_W_right.2" depart="90.00" departLane="W_in_1" departPos="89.17" departSpeed="11.39" departDelay="0.87" arrival="134.00" arrivalLane="S_out_0" arrivalPos="189.60" arrivalSpeed="13.72" duration="44.00" routeLength="299.06" waitingTime="10.00" waitingCount="1" stopTime="0.00" timeLoss="22.62" rerouteNo="0" devices="vehroute_flow_15_phase1_W_right.2 tripinfo_flow_15_phase1_W_right.2" vType="moto" speedFactor="1.03" vaporized=""/>
    <tripinfo id="flow_13_phase1_W_straight.5" depart="91.00" departLane="W_in_1" departPos="74.60" departSpeed="11.83" departDelay="0.18" arrival="135.00" arrivalLane="E_out_0" arrivalPos="189.60" arrivalSpeed="13.88" duration="44.00" routeLength="325.40" waitingTime="6.00" waitingCount="1" stopTime="0.00" timeLoss="21.04" rerouteNo="0" devices="vehroute_flow_13_phase1_W_straight.5 tripinfo_flow_13_phase1_W_straight.5" vType="moto" speedFactor="1.04" vaporized=""/>
    <tripinfo id="flow_5_phase1_S_straight.6" depart="108.00" departLane="S_in_1" departPos="152.01" departSpeed="5.60" departDelay="0.28" arrival="141.00" arrivalLane="N_out_1" arrivalPos="189.60" arrivalSpeed="14.24" duration="33.00" routeLength="247.99" waitingTime="9.00" waitingCount="1" stopTime="0.00" timeLoss="16.56" rerouteNo="0" devices="vehroute_flow_5_phase1_S_straight.6 tripinfo_flow_5_phase1_S_straight.6" vType="moto" speedFactor="1.10" vaporized=""/>
    <tripinfo id="flow_5_phase1_S_straight.5" depart="90.00" departLane="S_in_0" departPos="104.14" departSpeed="10.31" departDelay="0.23" arrival="142.00" arrivalLane="N_out_0" arrivalPos="189.60" arrivalSpeed="12.96" duration="52.00" routeLength="295.86" waitingTime="16.00" waitingCount="1" stopTime="0.00" timeLoss="29.24" rerouteNo="0" devices="vehroute_flow_5_phase1_S_straight.5 tripinfo_flow_5_phase1_S_straight.5" vType="moto" speedFactor="0.95" vaporized=""/>
    <tripinfo id="flow_16_phase1_W_uturn.1" depart="90.00" departLane="W_in_1" departPos="124.88" departSpeed="0.01" departDelay="0.15" arrival="142.00" arrivalLane="W_out_0" arrivalPos="189.60" arrivalSpeed="12.09" duration="52.00" routeLength="258.99" waitingTime="10.00" waitingCount="2" stopTime="0.00" timeLoss="28.92" rerouteNo="0" devices="vehroute_flow_16_phase1_W_uturn.1 tripinfo_flow_16_phase1_W_uturn.1" vType="truck" speedFactor="0.89" vaporized=""/>
    <tripinfo id="flow_6_phase1_S_left.2" depart="91.00" departLane="S_in_1" departPos="92.22" departSpeed="0.17" departDelay="0.20" arrival="143.00" arrivalLane="W_out_1" arrivalPos="189.60" arrivalSpeed="14.16" duration="52.00" routeLength="306.33" waitingTime="11.00" waitingCount="2" stopTime="0.00" timeLoss="30.37" rerouteNo="0" devices="vehroute_flow_6_phase1_S_left.2 tripinfo_flow_6_phase1_S_left.2" vType="moto" speedFactor="1.07" vaporized=""/>
    <tripinfo id="flow_2_phase1_N_left.2" depart="89.00" departLane="N_in_1" departPos="65.33" departSpeed="12.53" departDelay="0.30" arrival="147.00" arrivalLane="E_out_1" arrivalPos="189.60" arrivalSpeed="12.66" duration="58.00" routeLength="333.22" waitingTime="18.00" waitingCount="3" stopTime="0.00" timeLoss="32.98" rerouteNo="0" devices="vehroute_flow_2_phase1_N_left.2 tripinfo_flow_2_phase1_N_left.2" vType="moto" speedFactor="1.00" vaporized=""/>
    <tripinfo id="flow_9_phase1_E_straight.7" depart="123.00" departLane="E_in_1" departPos="37.04" departSpeed="3.19" departDelay="0.67" arrival="152.00" arrivalLane="W_out_0" arrivalPos="189.60" arrivalSpeed="13.18" duration="29.00" routeLength="362.96" waitingTime="0.00" waitingCount="0" stopTime="0.00" timeLoss="2.93" rerouteNo="0" devices="vehroute_flow_9_phase1_E_straight.7 tripinfo_flow_9_phase1_E_straight.7" vType="moto" speedFactor="1.01" vaporized=""/>
    <tripinfo id="flow_13_phase1_W_straight.6" depart="109.00" departLane="W_in_0" departPos="24.55" departSpeed="7.86" departDelay="0.02" arrival="155.00" arrivalLane="E_out_0" arrivalPos="189.60" arrivalSpeed="13.29" duration="46.00" routeLength="375.45" waitingTime="11.00" waitingCount="1" stopTime="0.00" timeLoss="17.68" rerouteNo="0" devices="vehroute_flow_13_phase1_W_straight.6 tripinfo_flow_13_phase1_W_straight.6" vType="car" speedFactor="0.98" vaporized=""/>
    <tripinfo id="flow_1_phase1_N_straight.6" depart="111.00" departLane="W_in_0" departPos="18.52" departSpeed="1.56" departDelay="0.94" arrival="157.00" arrivalLane="S_out_0" arrivalPos="189.60" arrivalSpeed="13.47" duration="46.00" routeLength="369.71" waitingTime="7.00" waitingCount="1" stopTime="0.00" timeLoss="16.94" rerouteNo="0" devices="vehroute_flow_1_phase1_N_straight.6 tripinfo_flow_1_phase1_N_straight.6" vType="car" speedFactor="0.98" vaporized=""/>
    <tripinfo id="flow_14_phase1_W_left.2" depart="94.00" departLane="W_in_1" departPos="29.07" departSpeed="2.59" departDelay="0.44" arrival="158.00" arrivalLane="N_out_1" arrivalPos="189.60" arrivalSpeed="11.88" duration="64.00" routeLength="369.48" waitingTime="15.00" waitingCount="4" stopTime="0.00" timeLoss="33.34" rerouteNo="0" devices="vehroute_flow_14_phase1_W_left.2 tripinfo_flow_14_phase1_W_left.2" vType="car" speedFactor="0.90" vaporized=""/>
    <tripinfo id="flow_1_phase1_N_straight.7" depart="129.00" departLane="W_in_1" departPos="41.83" departSpeed="13.89" departDelay="0.59" arrival="158.00" arrivalLane="S_out_0" arrivalPos="189.60" arrivalSpeed="14.21" duration="29.00" routeLength="346.40" waitingTime="0.00" waitingCount="0" stopTime="0.00" timeLoss="4.72" rerouteNo="0" devices="vehroute_flow_1_phase1_N_straight.7 tripinfo_flow_1_phase1_N_straight.7" vType="moto" speedFactor="1.06" vaporized=""/>