<?xml version="1.0" encoding="UTF-8"?>

<!-- generated on 2025-12-09 22:52:57 by Eclipse SUMO sumo Version 1.18.0
<configuration xmlns:xsi="http://www.w3.org/2001/XMLSchema-instance" xsi:noNamespaceSchemaLocation="http://sumo.dlr.de/xsd/sumoConfiguration.xsd">

    <input>
        <net-file value="/workspace/nets/60p2k/net.net.xml"/>
        <route-files value="/workspace/nets/60p2k/route_temp_612_137971484654080_15553294.rou.xml"/>
    </input>

    <output>
        <summary-output value="results/summary_ep_6.xml"/>
        <tripinfo-output value="results/tripinfo_ep_6.xml"/>
        <vehroute-output value="results/vehroute_ep_6.xml"/>
    </output>

    <time>
        <begin value="0"/>
    </time>

    <report>
        <verbose value="true"/>
        <no-step-log value="true"/>
    </report>

    <traci_server>
        <remote-port value="48383"/>
    </traci_server>

    <gui_only>
        <gui-settings-file value="/workspace/nets/60p2k/gui-settings.xml"/>
        <quit-on-end value="true"/>
    </gui_only>

</configuration>
-->

<tripinfos xmlns:xsi="http://www.w3.org/2001/XMLSchema-instance" xsi:noNamespaceSchemaLocation="http://sumo.dlr.de/xsd/tripinfo_file.xsd">
    <tripinfo id="flow_16_phase1_W_uturn.0" depart="0.00" departLane="N_in_0" departPos="126.68" departSpeed="11.71" departDelay="0.00" arrival="21.00" arrivalLane="S_out_0" arrivalPos="189.60" arrivalSpeed="14.06" duration="21.00" routeLength="273.32" waitingTime="0.00" waitingCount="0" stopTime="0.00" timeLoss="1.15" rerouteNo="0" devices="vehroute_flow_16_phase1_W_uturn.0 tripinfo_flow_16_phase1_W_uturn.0" vType="moto" speedFactor="1.04" vaporized=""/>
    <tripinfo id="flow_3_phase1_N_right.0" depart="0.00" departLane="N_in_0" departPos="103.38" departSpeed="3.75" departDelay="0.00" arrival="24.00" arrivalLane="W_out_0" arrivalPos="189.60" arrivalSpeed="14.93" duration="24.00" routeLength="284.85" waitingTime="0.00" waitingCount="0" stopTime="0.00" timeLoss="4.43" rerouteNo="0" devices="vehroute_flow_3_phase1_N_right.0 tripinfo_flow_3_phase1_N_right.0" vType="car" speedFactor="1.09" vaporized=""/>
    <tripinfo id="flow_8_phase1_S_uturn.0" depart="0.00" departLane="S_in_0" departPos="120.11" departSpeed="4.48" departDelay="0.00" arrival="24.00" arrivalLane="S_out_1" arrivalPos="189.60" arrivalSpeed="13.35" duration="24.00" routeLength="263.76" waitingTime="0.00" waitingCount="0" stopTime="0.00" timeLoss="4.90" rerouteNo="0" devices="vehroute_flow_8_phase1_S_uturn.0 tripinfo_flow_8_phase1_S_uturn.0" vType="moto" speedFactor="1.05" vaporized=""/>
    <tripinfo id="flow_5_phase1_S_straight.0" depart="0.00" departLane="S_in_1" departPos="107.37" departSpeed="7.21" departDelay="0.00" arrival="25.00" arrivalLane="N_out_1" arrivalPos="189.60" arrivalSpeed="15.54" duration="25.00" routeLength="292.63" waitingTime="0.00" waitingCount="0" stopTime="0.00" timeLoss="6.40" rerouteNo="0" devices="vehroute_flow_5_phase1_S_straight.0 tripinfo_flow_5_phase1_S_straight.0" vType="moto" speedFactor="1.15" vaporized=""/>
    <tripinfo id="flow_6_phase1_S_left.0" depart="0.00" departLane="S_in_1" departPos="166.01" departSpeed="0.74" departDelay="0.00" arrival="26.00" arrivalLane="W_out_1" arrivalPos="189.60" arrivalSpeed="11.97" duration="26.00" routeLength="232.54" waitingTime="0.00" waitingCount="0" stopTime="0.00" timeLoss="5.36" rerouteNo="0" devices="vehroute_flow_6_phase1_S_left.0 tripinfo_flow_6_phase1_S_left.0" vType="moto" speedFactor="0.88" vaporized=""/>
    <tripinfo id="flow_4_phase1_N_uturn.0" depart="0.00" departLane="N_in_1" departPos="127.60" departSpeed="0.08" departDelay="0.00" arrival="32.00" arrivalLane="N_out_1" arrivalPos="189.60" arrivalSpeed="12.72" duration="32.00" routeLength="256.27" waitingTime="2.00" waitingCount="1" stopTime="0.00" timeLoss="10.49" rerouteNo="0" devices="vehroute_flow_4_phase1_N_uturn.0 tripinfo_flow_4_phase1_N_uturn.0" vType="car" speedFactor="0.92" vaporized=""/>
    <tripinfo id="flow_15_phase1_W_right.0" depart="0.00" departLane="W_in_0" departPos="108.38" departSpeed="2.63" departDelay="0.00" arrival="38.00" arrivalLane="S_out_0" arrivalPos="189.60" arrivalSpeed="11.36" duration="38.00" routeLength="279.85" waitingTime="6.00" waitingCount="1" stopTime="0.00" timeLoss="13.34" rerouteNo="0" devices="vehroute_flow_15_phase1_W_right.0 tripinfo_flow_15_phase1_W_right.0" vType="moto" speedFactor="0.85" vaporized=""/>
    <tripinfo id="flow_9_phase1_E_straight.0" depart="0.00" departLane="E_in_0" departPos="168.29" departSpeed="9.83" departDelay="0.00" arrival="41.00" arrivalLane="W_out_0" arrivalPos="189.60" arrivalSpeed="12.31" duration="41.00" routeLength="231.71" waitingTime="12.00" waitingCount="1" stopTime="0.00" timeLoss="22.18" rerouteNo="0" devices="vehroute_flow_9_phase1_E_straight.0 tripinfo_flow_9_phase1_E_straight.0" vType="truck" speedFactor="0.90" vaporized=""/>
    <tripinfo id="flow_13_phase1_W_straight.0" depart="0.00" departLane="W_in_0" departPos="24.53" departSpeed="3.79" departDelay="0.00" arrival="43.00" arrivalLane="E_out_0" arrivalPos="189.60" arrivalSpeed="11.41" duration="43.00" routeLength="375.47" waitingTime="0.00" waitingCount="0" stopTime="0.00" timeLoss="10.06" rerouteNo="0" devices="vehroute_flow_13_phase1_W_straight.0 tripinfo_flow_13_phase1_W_straight.0" vType="container" speedFactor="0.82" vaporized=""/>
    <tripinfo id="flow_14_phase1_W_left.0" depart="0.00" departLane="W_in_1" departPos="182.88" departSpeed="5.61" departDelay="0.00" arrival="43.00" arrivalLane="N_out_1" arrivalPos="189.60" arrivalSpeed="13.05" duration="43.00" routeLength="215.67" waitingTime="17.00" waitingCount="2" stopTime="0.00" timeLoss="26.18" rerouteNo="0" devices="vehroute_flow_14_phase1_W_left.0 tripinfo_flow_14_phase1_W_left.0" vType="moto" speedFactor="1.01" vaporized=""/>
    <tripinfo id="flow_10_phase1_E_left.0" depart="0.00" departLane="E_in_0" departPos="44.88" departSpeed="7.69" departDelay="0.00" arrival="49.00" arrivalLane="S_out_1" arrivalPos="189.60" arrivalSpeed="13.56" duration="49.00" routeLength="353.67" waitingTime="5.00" waitingCount="2" stopTime="0.00" timeLoss="22.37" rerouteNo="0" devices="vehroute_flow_10_phase1_E_left.0 tripinfo_flow_10_phase1_E_left.0" vType="truck" speedFactor="1.02" vaporized=""/>
    <tripinfo id="flow_11_phase1_E_right.0" depart="0.00" departLane="W_in_1" departPos="144.95" departSpeed="4.02" departDelay="0.00" arrival="49.00" arrivalLane="N_out_1" arrivalPos="189.60" arrivalSpeed="12.87" duration="49.00" routeLength="253.60" waitingTime="14.00" waitingCount="2" stopTime="0.00" timeLoss="28.72" rerouteNo="0" devices="vehroute_flow_11_phase1_E_right.0 tripinfo_flow_11_phase1_E_right.0" vType="bus" speedFactor="0.96" vaporized=""/>
    <tripinfo id="flow_5_phase1_S_straight.1" depart="18.00" departLane="S_in_0" departPos="131.13" departSpeed="9.54" departDelay="0.05" arrival="51.00" arrivalLane="N_out_1" arrivalPos="189.60" arrivalSpeed="15.73" duration="33.00" routeLength="268.87" waitingTime="5.00" waitingCount="1" stopTime="0.00" timeLoss="15.68" rerouteNo="0" devices="vehroute_flow_5_phase1_S_straight.1 tripinfo_flow_5_phase1_S_straight.1" vType="moto" speedFactor="1.16" vaporized=""/>
    <tripinfo id="flow_1_phase1_N_straight.1" depart="19.00" departLane="N_in_1" departPos="31.93" departSpeed="9.28" departDelay="0.66" arrival="52.00" arrivalLane="S_out_1" arrivalPos="189.60" arrivalSpeed="15.37" duration="33.00" routeLength="368.07" waitingTime="1.00" waitingCount="1" stopTime="0.00" timeLoss="9.79" rerouteNo="0" devices="vehroute_flow_1_phase1_N_straight.1 tripinfo_flow_1_phase1_N_straight.1" vType="moto" speedFactor="1.19" vaporized=""/>
    <tripinfo id="flow_2_phase1_N_left.0" depart="0.00" departLane="N_in_1" departPos="8.27" departSpeed="8.33" departDelay="0.00" arrival="53.00" arrivalLane="E_out_1" arrivalPos="189.60" arrivalSpeed="13.96" duration="53.00" routeLength="390.28" waitingTime="15.00" waitingCount="2" stopTime="0.00" timeLoss="24.01" rerouteNo="0" devices="vehroute_flow_2_phase1_N_left.0 tripinfo_flow_2_phase1_N_left.0" vType="moto" speedFactor="1.02" vaporized=""/>
    <tripinfo id="flow_1_phase1_N_straight.0" depart="0.00" departLane="N_in_0" departPos="8.62" departSpeed="8.51" departDelay="0.00" arrival="56.00" arrivalLane="S_out_0" arrivalPos="189.60" arrivalSpeed="11.83" duration="56.00" routeLength="391.38" waitingTime="11.00" waitingCount="1" stopTime="0.00" timeLoss="22.63" rerouteNo="0" devices="vehroute_flow_1_phase1_N_straight.0 tripinfo_flow_1_phase1_N_straight.0" vType="bus" speedFactor="0.86" vaporized=""/>
    <tripinfo id="flow_7_phase1_S_right.0" depart="0.00" departLane="S_in_0" departPos="8.76" departSpeed="8.07" departDelay="0.00" arrival="57.00" arrivalLane="E_out_0" arrivalPos="189.60" arrivalSpeed="11.51" duration="57.00" routeLength="379.47" waitingTime="12.00" waitingCount="1" stopTime="0.00" timeLoss="23.57" rerouteNo="0" devices="vehroute_flow_7_phase1_S_right.0 tripinfo_flow_7_phase1_S_right.0" vType="container" speedFactor="0.85" vaporized=""/>
    <tripinfo id="flow_13_phase1_W_straight.1" depart="19.00" departLane="W_in_1" departPos="121.65" departSpeed="2.86" departDelay="0.84" arrival="61.00" arrivalLane="E_out_0" arrivalPos="189.60" arrivalSpeed="15.54" duration="42.00" routeLength="278.35" waitingTime="11.00" waitingCount="1" stopTime="0.00" timeLoss="23.76" rerouteNo="0" devices="vehroute_flow_13_phase1_W_straight.1 tripinfo_flow_13_phase1_W_straight.1" vType="car" speedFactor="1.12" vaporized=""/>
    <tripinfo id="flow_13_phase1_W_straight.2" depart="37.00" departLane="W_in_1" departPos="107.53" departSpeed="1.11" departDelay="0.67" arrival="63.00" arrivalLane="E_out_1" arrivalPos="189.60" arrivalSpeed="12.76" duration="26.00" routeLength="292.47" waitingTime="0.00" waitingCount="0" stopTime="0.00" timeLoss="3.06" rerouteNo="0" devices="vehroute_flow_13_phase1_W_straight.2 tripinfo_flow_13_phase1_W_straight.2" vType="moto" speedFactor="0.93" vaporized=""/>
    <tripinfo id="flow_9_phase1_E_straight.1" depart="18.00" departLane="E_in_1" departPos="58.36" departSpeed="11.64" departDelay="0.52" arrival="65.00" arrivalLane="W_out_0" arrivalPos="189.60" arrivalSpeed="11.35" duration="47.00" routeLength="341.64" waitingTime="9.00" waitingCount="1" stopTime="0.00" timeLoss="18.14" rerouteNo="0" devices="vehroute_flow_9_phase1_E_straight.1 tripinfo_flow_9_phase1_E_straight.1" vType="moto" speedFactor="0.87" vaporized=""/>
    <tripinfo id="flow_12_phase1_E_uturn.0" depart="0.00" departLane="E_in_0" departPos="5.65" departSpeed="13.76" departDelay="0.00" arrival="66.00" arrivalLane="E_out_1" arrivalPos="189.60" arrivalSpeed="14.15" duration="66.00" routeLength="378.22" waitingTime="21.00" waitingCount="4" stopTime="0.00" timeLoss="37.89" rerouteNo="0" devices="vehroute_flow_12_phase1_E_uturn.0 tripinfo_flow_12_phase1_E_uturn.0" vType="moto" speedFactor="1.03" vaporized=""/>
    <tripinfo id="flow_9_phase1_E_straight.2" depart="35.00" departLane="E_in_1" departPos="52.87" departSpeed="0.38" departDelay="0.05" arrival="67.00" arrivalLane="W_out_1" arrivalPos="189.60" arrivalSpeed="13.21" duration="32.00" routeLength="347.13" waitingTime="0.00" waitingCount="0" stopTime="0.00" timeLoss="6.20" rerouteNo="0" devices="vehroute_flow_9_phase1_E_straight.2 tripinfo_flow_9_phase1_E_straight.2" vType="moto" speedFactor="0.99" vaporized=""/>
    <tripinfo id="flow_11_phase1_E_right.1" depart="45.00" departLane="W_in_1" departPos="128.68" departSpeed="3.06" departDelay="0.91" arrival="70.00" arrivalLane="N_out_1" arrivalPos="189.60" arrivalSpeed="14.25" duration="25.00" routeLength="269.87" waitingTime="0.00" waitingCount="0" stopTime="0.00" timeLoss="5.01" rerouteNo="0" devices="vehroute_flow_11_phase1_E_right.1 tripinfo_flow_11_phase1_E_right.1" vType="moto" speedFactor="1.04" vaporized=""/>
    <tripinfo id="flow_5_phase1_S_straight.2" depart="36.00" departLane="S_in_1" departPos="12.70" departSpeed="12.41" departDelay="0.09" arrival="76.00" arrivalLane="N_out_0" arrivalPos="189.60" arrivalSpeed="12.13" duration="40.00" routeLength="387.30" waitingTime="3.00" waitingCount="1" stopTime="0.00" timeLoss="10.29" rerouteNo="0" devices="vehroute_flow_5_phase1_S_straight.2 tripinfo_flow_5_phase1_S_straight.2" vType="moto" speedFactor="0.96" vaporized=""/>
    <tripinfo id="flow_3_phase1_N_right.1" depart="47.00" departLane="N_in_0" departPos="166.00" departSpeed="1.28" departDelay="0.61" arrival="76.00" arrivalLane="W_out_0" arrivalPos="189.60" arrivalSpeed="11.63" duration="29.00" routeLength="222.23" waitingTime="2.00" waitingCount="1" stopTime="0.00" timeLoss="10.21" rerouteNo="0" devices="vehroute_flow_3_phase1_N_right.1 tripinfo_flow_3_phase1_N_right.1" vType="moto" speedFactor="0.88" vaporized=""/>
    <tripinfo id="flow_1_phase1_N_straight.2" depart="37.00" departLane="N_in_1" departPos="59.51" departSpeed="13.32" departDelay="0.31" arrival="81.00" arrivalLane="S_out_0" arrivalPos="189.60" arrivalSpeed="13.29" duration="44.00" routeLength="340.49" waitingTime="5.00" waitingCount="1" stopTime="0.00" timeLoss="17.68" rerouteNo="0" devices="vehroute_flow_1_phase1_N_straight.2 tripinfo_flow_1_phase1_N_straight.2" vType="bus" speedFactor="0.97" vaporized=""/>
    <tripinfo id="flow_7_phase1_S_right.1" depart="45.00" departLane="S_in_1" departPos="66.71" departSpeed="7.87" departDelay="0.90" arrival="83.00" arrivalLane="E_out_0" arrivalPos="189.60" arrivalSpeed="10.35" duration="38.00" routeLength="321.52" waitingTime="0.00" waitingCount="0" stopTime="0.00" timeLoss="6.75" rerouteNo="0" devices="vehroute_flow_7_phase1_S_right.1 tripinfo_flow_7_phase1_S_right.1" vType="container" speedFactor="0.78" vaporized=""/>
    <tripinfo id="flow_5_phase1_S_straight.3" depart="54.00" departLane="S_in_0" departPos="56.18" departSpeed="14.54" departDelay="0.14" arrival="85.00" arrivalLane="N_out_0" arrivalPos="189.60" arrivalSpeed="14.50" duration="31.00" routeLength="343.82" waitingTime="0.00" waitingCount="0" stopTime="0.00" timeLoss="7.44" rerouteNo="0" devices="vehroute_flow_5_phase1_S_straight.3 tripinfo_flow_5_phase1_S_straight.3" vType="moto" speedFactor="1.08" vaporized=""/>
    <tripinfo id="flow_15_phase1_W_right.1" depart="45.00" departLane="W_in_0" departPos="73.90" departSpeed="9.22" departDelay="0.44" arrival="86.00" arrivalLane="S_out_0" arrivalPos="189.60" arrivalSpeed="14.92" duration="41.00" routeLength="314.33" waitingTime="14.00" waitingCount="1" stopTime="0.00" timeLoss="19.21" rerouteNo="0" devices="vehroute_flow_15_phase1_W_right.1 tripinfo_flow_15_phase1_W_right.1" vType="moto" speedFactor="1.08" vaporized=""/>
    <tripinfo id="flow_6_phase1_S_left.1" depart="46.00" departLane="S_in_1" departPos="110.92" departSpeed="11.99" departDelay="0.60" arrival="86.00" arrivalLane="W_out_1" arrivalPos="189.60" arrivalSpeed="13.33" duration="40.00" routeLength="287.63" waitingTime="9.00" waitingCount="2" stopTime="0.00" timeLoss="19.04" rerouteNo="0" devices="vehroute_flow_6_phase1_S_left.1 tripinfo_flow_6_phase1_S_left.1" vType="moto" speedFactor="1.05" vaporized=""/>
    <tripinfo id="flow_2_phase1_N_left.1" depart="45.00" departLane="N_in_0" departPos="8.88" departSpeed="2.82" departDelay="0.65" arrival="87.00" arrivalLane="E_out_1" arrivalPos="189.60" arrivalSpeed="15.49" duration="42.00" routeLength="389.67" waitingTime="5.00" waitingCount="1" stopTime="0.00" timeLoss="16.43" rerouteNo="0" devices="vehroute_flow_2_phase1_N_left.1 tripinfo_flow_2_phase1_N_left.1" vType="moto" speedFactor="1.12" vaporized=""/>
    <tripinfo id="flow_13_phase1_W_straight.3" depart="55.00" departLane="W_in_0" departPos="132.62" departSpeed="5.49" departDelay="0.51" arrival="88.00" arrivalLane="E_out_0" arrivalPos="189.60" arrivalSpeed="15.87" duration="33.00" routeLength="267.38" waitingTime="9.00" waitingCount="1" stopTime="0.00" timeLoss="15.69" rerouteNo="0" devices="vehroute_flow_13_phase1_W_straight.3 tripinfo_flow_13_phase1_W_straight.3" vType="moto" speedFactor="1.20" vaporized=""/>
    <tripinfo id="flow_9_phase1_E_straight.3" depart="53.00" departLane="E_in_1" departPos="165.68" departSpeed="5.39" departDelay="0.57" arrival="96.00" arrivalLane="W_out_0" arrivalPos="189.60" arrivalSpeed="11.24" duration="43.00" routeLength="234.32" waitingTime="10.00" waitingCount="1" stopTime="0.00" timeLoss="22.96" rerouteNo="0" devices="vehroute_flow_9_phase1_E_straight.3 tripinfo_flow_9_phase1_E_straight.3" vType="bus" speedFactor="0.85" vaporized=""/>
    <tripinfo id="flow_9_phase1_E_straight.4" depart="70.00" departLane="E_in_1" departPos="135.04" departSpeed="3.72" departDelay="0.10" arrival="99.00" arrivalLane="W_out_1" arrivalPos="189.60" arrivalSpeed="13.01" duration="29.00" routeLength="264.96" waitingTime="0.00" waitingCount="0" stopTime="0.00" timeLoss="8.81" rerouteNo="0" devices="vehroute_flow_9_phase1_E_straight.4 tripinfo_flow_9_phase1_E_straight.4" vType="bus" speedFactor="0.95" vaporized=""/>
    <tripinfo id="flow_10_phase1_E_left.1" depart="46.00" departLane="E_in_1" departPos="4.52" departSpeed="3.89" departDelay="0.54" arrival="100.00" arrivalLane="S_out_0" arrivalPos="189.60" arrivalSpeed="10.35" duration="54.00" routeLength="394.03" waitingTime="2.00" waitingCount="2" stopTime="0.00" timeLoss="15.27" rerouteNo="0" devices="vehroute_flow_10_phase1_E_left.1 tripinfo_flow_10_phase1_E_left.1" vType="truck" speedFactor="0.77" vaporized=""/>
    <tripinfo id="flow_1_phase1_N_straight.3" depart="56.00" departLane="N_in_0" departPos="125.48" departSpeed="6.79" departDelay="0.97" arrival="101.00" arrivalLane="S_out_1" arrivalPos="189.60" arrivalSpeed="14.00" duration="45.00" routeLength="274.52" waitingTime="12.00" waitingCount="2" stopTime="0.00" timeLoss="25.96" rerouteNo="0" devices="vehroute_flow_1_phase1_N_straight.3 tripinfo_flow_1_phase1_N_straight.3" vType="car" speedFactor="1.05" vaporized=""/>
    <tripinfo id="flow_5_phase1_S_straight.4" depart="72.00" departLane="S_in_0" departPos="26.76" departSpeed="9.62" departDelay="0.18" arrival="101.00" arrivalLane="N_out_0" arrivalPos="189.60" arrivalSpeed="13.05" duration="29.00" routeLength="373.24" waitingTime="0.00" waitingCount="0" stopTime="0.00" timeLoss="1.26" rerouteNo="0" devices="vehroute_flow_5_phase1_S_straight.4 tripinfo_flow_5_phase1_S_straight.4" vType="container" speedFactor="0.97" vaporized=""/>
    <tripinfo id="flow_1_phase1_N_straight.4" depart="74.00" departLane="N_in_0" departPos="128.04" departSpeed="4.99" departDelay="0.62" arrival="104.00" arrivalLane="S_out_0" arrivalPos="189.60" arrivalSpeed="12.05" duration="30.00" routeLength="271.96" waitingTime="0.00" waitingCount="0" stopTime="0.00" timeLoss="8.37" rerouteNo="0" devices="vehroute_flow_1_phase1_N_straight.4 tripinfo_flow_1_phase1_N_straight.4" vType="truck" speedFactor="0.92" vaporized=""/>
    <tripinfo id="flow_5_phase1_S_straight.5" depart="90.00" departLane="S_in_0" departPos="179.13" departSpeed="7.48" departDelay="0.23" arrival="108.00" arrivalLane="N_out_0" arrivalPos="189.60" arrivalSpeed="12.61" duration="18.00" routeLength="220.87" waitingTime="0.00" waitingCount="0" stopTime="0.00" timeLoss="1.19" rerouteNo="0" devices="vehroute_flow_5_phase1_S_straight.5 tripinfo_flow_5_phase1_S_straight.5" vType="moto" speedFactor="0.95" vaporized=""/>
    <tripinfo id="flow_14_phase1_W_left.1" depart="47.00" departLane="W_in_0" departPos="80.60" departSpeed="9.71" departDelay="0.22" arrival="115.00" arrivalLane="N_out_1" arrivalPos="189.60" arrivalSpeed="12.34" duration="68.00" routeLength="317.95" waitingTime="25.00" waitingCount="2" stopTime="0.00" timeLoss="41.64" rerouteNo="0" devices="vehroute_flow_14_phase1_W_left.1 tripinfo_flow_14_phase1_W_left.1" vType="container" speedFactor="0.91" vaporized=""/>
    <tripinfo id="flow_9_phase1_E_straight.5" depart="88.00" departLane="E_in_1" departPos="29.12" departSpeed="12.08" departDelay="0.62" arrival="115.00" arrivalLane="W_out_1" arrivalPos="189.60" arrivalSpeed="13.47" duration="27.00" routeLength="370.88" waitingTime="0.00" waitingCount="0" stopTime="0.00" timeLoss="1.01" rerouteNo="0" devices="vehroute_flow_9_phase1_E_straight.5 tripinfo_flow_9_phase1_E_straight.5" vType="moto" speedFactor="1.03" vaporized=""/>
    <tripinfo id="flow_11_phase1_E_right.2" depart="89.00" departLane="W_in_1" departPos="112.37" departSpeed="10.40" departDelay="0.82" arrival="118.00" arrivalLane="N_out_1" arrivalPos="189.60" arrivalSpeed="15.19" duration="29.00" routeLength="286.18" waitingTime="3.00" waitingCount="1" stopTime="0.00" timeLoss="8.79" rerouteNo="0" devices="vehroute_flow_11_phase1_E_right.2 tripinfo_flow_11_phase1_E_right.2" vType="emergency" speedFactor="1.10" vaporized=""/>
    <tripinfo id="flow_15_phase1_W_right.2" depart="90.00" departLane="W_in_1" departPos="89.17" departSpeed="11.39" departDelay="0.87" arrival="119.00" arrivalLane="S_out_0" arrivalPos="189.60" arrivalSpeed="13.77" duration="29.00" routeLength="299.06" waitingTime="0.00" waitingCount="0" stopTime="0.00" timeLoss="7.28" rerouteNo="0" devices="vehroute_flow_15_phase1_W_right.2 tripinfo_flow_15_phase1_W_right.2" vType="moto" speedFactor="1.03" vaporized=""/>
    <tripinfo id="flow_13_phase1_W_straight.5" depart="91.00" departLane="W_in_1" departPos="74.60" departSpeed="11.83" departDelay="0.18" arrival="120.00" arrivalLane="E_out_1" arrivalPos="189.60" arrivalSpeed="13.32" duration="29.00" routeLength="325.40" waitingTime="1.00" waitingCount="1" stopTime="0.00" timeLoss="6.36" rerouteNo="0" devices="vehroute_flow_13_phase1_W_straight.5 tripinfo_flow_13_phase1_W_straight.5" vType="moto" speedFactor="1.04" vaporized=""/>
    <tripinfo id="flow_13_phase1_W_straight.4" depart="73.00" departLane="W_in_0" departPos="91.01" departSpeed="4.49" departDelay="0.34" arrival="121.00" arrivalLane="E_out_0" arrivalPos="189.60" arrivalSpeed="11.72" duration="48.00" routeLength="308.99" waitingTime="9.00" waitingCount="1" stopTime="0.00" timeLoss="22.28" rerouteNo="0" devices="vehroute_flow_13_phase1_W_straight.4 tripinfo_flow_13_phase1_W_straight.4" vType="bus" speedFactor="0.87" vaporized=""/>
    <tripinfo id="flow_7_phase1_S_right.2" depart="89.00" departLane="S_in_0" departPos="52.57" departSpeed="9.36" departDelay="0.80" arrival="125.00" arrivalLane="E_out_0" arrivalPos="189.60" arrivalSpeed="15.01" duration="36.00" routeLength="335.66" waitingTime="6.00" waitingCount="1" stopTime="0.00" timeLoss="13.93" rerouteNo="0" devices="vehroute_flow_7_phase1_S_right.2 tripinfo_flow_7_phase1_S_right.2" vType="moto" speedFactor="1.14" vaporized=""/>
    <tripinfo id="flow_12_phase1_E_uturn.1" depart="90.00" departLane="E_in_0" departPos="31.76" departSpeed="11.77" departDelay="0.68" arrival="125.00" arrivalLane="E_out_1" arrivalPos="189.60" arrivalSpeed="11.78" duration="35.00" routeLength="352.11" waitingTime="2.00" waitingCount="1" stopTime="0.00" timeLoss="6.59" rerouteNo="0" devices="vehroute_flow_12_phase1_E_uturn.1 tripinfo_flow_12_phase1_E_uturn.1" vType="moto" speedFactor="0.94" vaporized=""/>
    <tripinfo id="flow_1_phase1_N_straight.5" depart="92.00" departLane="N_in_1" departPos="177.50" departSpeed="6.11" departDelay="0.28" arrival="129.00" arrivalLane="S_out_0" arrivalPos="189.60" arrivalSpeed="12.32" duration="37.00" routeLength="222.50" waitingTime="13.00" waitingCount="1" stopTime="0.00" timeLoss="18.33" rerouteNo="0" devices="vehroute_flow_1_phase1_N_straight.5 tripinfo_flow_1_phase1_N_straight.5" vType="moto" speedFactor="0.90" vaporized=""/>
    <tripinfo id="flow_3_phase1_N_right.2" depart="93.00" departLane="N_in_1" departPos="63.10" departSpeed="7.11" departDelay="0.22" arrival="130.00" arrivalLane="W_out_0" arrivalPos="189.60" arrivalSpeed="15.09" duration="37.00" routeLength="325.13" waitingTime="3.00" waitingCount="1" stopTime="0.00" timeLoss="14.66" rerouteNo="0" devices="vehroute_flow_3_phase1_N_right.2 tripinfo_flow_3_phase1_N_right.2" vType="moto" speedFactor="1.10" vaporized=""/>
    <tripinfo id="flow_8_phase1_S_uturn.1" depart="90.00" departLane="S_in_0" departPos="168.21" departSpeed="0.18" departDelay="0.53" arrival="131.00" arrivalLane="S_out_1" arrivalPos="189.60" arrivalSpeed="11.73" duration="41.00" routeLength="215.66" waitingTime="11.00" waitingCount="1" stopTime="0.00" timeLoss="21.89" rerouteNo="0" devices="vehroute_flow_8_phase1_S_uturn.1 tripinfo_flow_8_phase1_S_uturn.1" vType="moto" speedFactor="0.89" vaporized=""/>
    <tripinfo id="flow_16_phase1_W_uturn.1" depart="90.00" departLane="N_in_1" departPos="124.88" departSpeed="0.01" departDelay="0.15" arrival="132.00" arrivalLane="S_out_0" arrivalPos="189.60" arrivalSpeed="11.64" duration="42.00" routeLength="275.12" waitingTime="5.00" waitingCount="1" stopTime="0.00" timeLoss="19.62" rerouteNo="0" devices="vehroute_flow_16_phase1_W_uturn.1 tripinfo_flow_16_phase1_W_uturn.1" vType="truck" speedFactor="0.89" vaporized=""/>
    <tripinfo id="flow_6_phase1_S_left.2" depart="91.00" departLane="S_in_1" departPos="92.22" departSpeed="0.17" departDelay="0.20" arrival="132.00" arrivalLane="W_out_1" arrivalPos="189.60" arrivalSpeed="13.84" duration="41.00" routeLength="306.33" waitingTime="5.00" waitingCount="1" stopTime="0.00" timeLoss="19.28" rerouteNo="0" devices="vehroute_flow_6_phase1_S_left.2 tripinfo_flow_6_phase1_S_left.2" vType="moto" speedFactor="1.07" vaporized=""/>
    <tripinfo id="flow_4_phase1_N_uturn.1" depart="90.00" departLane="N_in_1" departPos="162.40" departSpeed="1.34" departDelay="0.37" arrival="133.00" arrivalLane="N_out_1" arrivalPos="189.60" arrivalSpeed="12.66" duration="43.00" routeLength="221.47" waitingTime="11.00" waitingCount="1" stopTime="0.00" timeLoss="24.31" rerouteNo="0" devices="vehroute_flow_4_phase1_N_uturn.1 tripinfo_flow_4_phase1_N_uturn.1" vType="truck" speedFactor="0.94" vaporized=""/>
    <tripinfo id="flow_5_phase1_S_straight.6" depart="108.00" departLane="S_in_1" departPos="29.88" departSpeed="12.24" departDelay="0.28" arrival="135.00" arrivalLane="N_out_1" arrivalPos="189.60" arrivalSpeed="13.98" duration="27.00" routeLength="370.12" waitingTime="0.00" waitingCount="0" stopTime="0.00" timeLoss="2.16" rerouteNo="0" devices="vehroute_flow_5_phase1_S_straight.6 tripinfo_flow_5_phase1_S_straight.6" vType="moto" speedFactor="1.10" vaporized=""/>
    <tripinfo id="flow_2_phase1_N_left.2" depart="89.00" departLane="N_in_0" departPos="125.76" departSpeed="4.77" departDelay="0.30" arrival="140.00" arrivalLane="E_out_1" arrivalPos="189.60" arrivalSpeed="12.58" duration="51.00" routeLength="272.79" waitingTime="12.00" waitingCount="2" stopTime="0.00" timeLoss="30.29" rerouteNo="0" devices="vehroute_flow_2_phase1_N_left.2 tripinfo_flow_2_phase1_N_left.2" vType="moto" speedFactor="1.00" vaporized=""/>
    <tripinfo id="flow_9_phase1_E_straight.6" depart="105.00" departLane="E_in_1" departPos="84.30" departSpeed="10.26" departDelay="0.14" arrival="141.00" arrivalLane="W_out_0" arrivalPos="189.60" arrivalSpeed="13.09" duration="36.00" routeLength="315.70" waitingTime="5.00" waitingCount="1" stopTime="0.00" timeLoss="13.40" rerouteNo="0" devices="vehroute_flow_9_phase1_E_straight.6 tripinfo_flow_9_phase1_E_straight.6" vType="moto" speedFactor="1.02" vaporized=""/>
    <tripinfo id="flow_13_phase1_W_straight.6" depart="109.00" departLane="W_in_0" departPos="149.69" departSpeed="1.76" departDelay="0.02" arrival="141.00" arrivalLane="E_out_0" arrivalPos="189.60" arrivalSpeed="12.76" duration="32.00" routeLength="250.31" waitingTime="6.00" waitingCount="1" stopTime="0.00" timeLoss="12.73" rerouteNo="0" devices="vehroute_flow_13_phase1_W_straight.6 tripinfo_flow_13_phase1_W_straight.6" vType="car" speedFactor="0.98" vaporized=""/>
    <tripinfo id="flow_10_phase1_E_left.2" depart="91.00" departLane="E_in_1" departPos="21.68" departSpeed="6.53" departDelay="0.07" arrival="142.00" arrivalLane="S_out_1" arrivalPos="189.60" arrivalSpeed="15.37" duration="51.00" routeLength="376.87" waitingTime="15.00" waitingCount="2" stopTime="0.00" timeLoss="26.67" rerouteNo="0" devices="vehroute_flow_10_phase1_E_left.2 tripinfo_flow_10_phase1_E_left.2" vType="moto" speedFactor="1.14" vaporized=""/>
    <tripinfo id="flow_9_phase1_E_straight.7" depart="123.00" departLane="E_in_1" departPos="174.35" departSpeed="2.74" departDelay="0.67" arrival="144.00" arrivalLane="W_out_1" arrivalPos="189.60" arrivalSpeed="13.41" duration="21.00" routeLength="225.65" waitingTime="0.00" waitingCount="0" stopTime="0.00" timeLoss="4.80" rerouteNo="0" devices="vehroute_flow_9_phase1_E_straight.7 tripinfo_flow_9_phase1_E_straight.7" vType="moto" speedFactor="1.01" vaporized=""/>
    <tripinfo id="flow_14_phase1_W_left.2" depart="94.00" departLane="W_in_1" departPos="84.66" departSpeed="1.91" departDelay="0.44" arrival="149.00" arrivalLane="N_out_1" arrivalPos="189.60" arrivalSpeed="11.54" duration="55.00" routeLength="313.89" waitingTime="21.00" waitingCount="2" stopTime="0.00" timeLoss="29.06" rerouteNo="0" devices="vehroute_flow_14_phase1_W_left.2 tripinfo_flow_14_phase1_W_left.2" vType="car" speedFactor="0.90" vaporized=""/>
    <tripinfo id="flow_1_phase1_N_straight.6" depart="111.00" departLane="N_in_0" departPos="42.85" departSpeed="1.33" departDelay="0.94" arrival="153.00" arrivalLane="S_out_0" arrivalPos="189.60" arrivalSpeed="13.29" duration="42.00" routeLength="357.15" waitingTime="6.00" waitingCount="1" stopTime="0.00" timeLoss="15.56" rerouteNo="0" devices="vehroute_flow_1_phase1_N_straight.6 tripinfo_flow_1_phase1_N_straight.6" vType="car" speedFactor="0.98" vaporized=""/>
    <tripinfo id="flow_1_phase1_N_straight.7" depart="129.00" departLane="N_in_0" departPos="174.06" departSpeed="3.26" departDelay="0.59" arrival="153.00" arrivalLane="S_out_1" arrivalPos="189.60" arrivalSpeed="14.55" duration="24.00" routeLength="225.94" waitingTime="0.00" waitingCount="0" stopTime="0.00" timeLoss="8.09" rerouteNo="0" devices="vehroute_flow_1_phase1_N_straight.7 tripinfo_flow_1_phase1_N_straight.7" vType="moto" speedFactor="1.06" vaporized=""/>