<?xml version="1.0" encoding="UTF-8"?>

<!-- generated on 2025-12-09 22:53:22 by Eclipse SUMO sumo Version 1.18.0
<configuration xmlns:xsi="http://www.w3.org/2001/XMLSchema-instance" xsi:noNamespaceSchemaLocation="http://sumo.dlr.de/xsd/sumoConfiguration.xsd">

    <input>
        <net-file value="/workspace/nets/60p2k/net.net.xml"/>
        <route-files value="/workspace/nets/60p2k/route_temp_612_137971484654080_15553294.rou.xml"/>
    </input>

    <output>
        <summary-output value="results/summary_ep_7.xml"/>
        <tripinfo-output value="results/tripinfo_ep_7.xml"/>
        <vehroute-output value="results/vehroute_ep_7.xml"/>
    </output>

    <time>
        <begin value="0"/>
    </time>

    <report>
        <verbose value="true"/>
        <no-step-log value="true"/>
    </report>

    <traci_server>
        <remote-port value="55651"/>
    </traci_server>

    <gui_only>
        <gui-settings-file value="/workspace/nets/60p2k/gui-settings.xml"/>
        <quit-on-end value="true"/>
    </gui_only>

</configuration>
-->

<routes xmlns:xsi="http://www.w3.org/2001/XMLSchema-instance" xsi:noNamespaceSchemaLocation="http://sumo.dlr.de/xsd/routes_file.xsd">
    <vehicle id="flow_3_phase1_N_right.0" type="car" depart="0.00" departLane="0" departPos="103.3842" departSpeed="3.7523" speedFactor="1.0907" arrival="24.00">
        <route edges="N_in W_out"/>
    </vehicle>

    <vehicle id="flow_8_phase1_S_uturn.0" type="moto" depart="0.00" departLane="0" departPos="120.1072" departSpeed="4.4837" speedFactor="1.0505" arrival="24.00">
        <route edges="S_in S_out"/>
    </vehicle>

    <vehicle id="flow_5_phase1_S_straight.0" type="moto" depart="0.00" departLane="1" departPos="107.3659" departSpeed="7.2113" speedFactor="1.1475" arrival="25.00">
        <route edges="S_in N_out"/>
    </vehicle>

    <vehicle id="flow_6_phase1_S_left.0" type="moto" depart="0.00" departLane="1" departPos="166.0107" departSpeed="0.7376" speedFactor="0.8806" arrival="25.00">
        <route edges="S_in W_out"/>
    </vehicle>

    <vehicle id="flow_4_phase1_N_uturn.0" type="car" depart="0.00" departLane="1" departPos="127.6015" departSpeed="0.0774" speedFactor="0.9228" arrival="32.00">
        <route edges="N_in N_out"/>
    </vehicle>

    <vehicle id="flow_13_phase1_W_straight.0" type="container" depart="0.00" departLane="0" departPos="24.5296" departSpeed="3.7887" speedFactor="0.8227" arrival="38.00">
        <route edges="W_in E_out"/>
    </vehicle>

    <vehicle id="flow_16_phase1_W_uturn.0" type="moto" depart="0.00" departLane="1" departPos="153.8984" departSpeed="3.4838" speedFactor="1.0383" arrival="38.00">
        <route edges="W_in W_out"/>
    </vehicle>

    <vehicle id="flow_13_phase1_W_straight.1" type="car" depart="19.00" departLane="1" departPos="121.6549" departSpeed="2.8591" speedFactor="1.1218" arrival="40.00">
        <route edges="W_in E_out"/>
    </vehicle>

    <vehicle id="flow_9_phase1_E_straight.0" type="truck" depart="0.00" departLane="0" departPos="168.2937" departSpeed="9.8263" speedFactor="0.8990" arrival="41.00">
        <route edges="E_in W_out"/>
    </vehicle>

    <vehicle id="flow_14_phase1_W_left.0" type="moto" depart="0.00" departLane="1" departPos="182.8773" departSpeed="5.6108" speedFactor="1.0101" arrival="41.00">
        <route edges="W_in N_out"/>
    </vehicle>

    <vehicle id="flow_11_phase1_E_right.0" type="bus" depart="0.00" departLane="1" departPos="144.9496" departSpeed="4.0187" speedFactor="0.9581" arrival="42.00">
        <route edges="E_in N_out"/>
    </vehicle>

    <vehicle id="flow_5_phase1_S_straight.1" type="moto" depart="18.00" departLane="0" departPos="135.6701" departSpeed="10.69" speedFactor="1.1582" arrival="48.00">
        <route edges="S_in N_out"/>
    </vehicle>

    <vehicle id="flow_10_phase1_E_left.0" type="truck" depart="0.00" departLane="0" departPos="44.8816" departSpeed="7.6878" speedFactor="1.0161" arrival="49.00">
        <route edges="E_in S_out"/>
    </vehicle>

    <vehicle id="flow_2_phase1_N_left.0" type="moto" depart="0.00" departLane="1" departPos="8.2688" departSpeed="8.3291" speedFactor="1.0157" arrival="55.00">
        <route edges="N_in E_out"/>
    </vehicle>

    <vehicle id="flow_1_phase1_N_straight.1" type="moto" depart="19.00" departLane="1" departPos="31.9285" departSpeed="9.2811" speedFactor="1.1853" arrival="55.00">
        <route edges="N_in S_out"/>
    </vehicle>

    <vehicle id="flow_1_phase1_N_straight.0" type="bus" depart="0.00" departLane="0" departPos="8.6229" departSpeed="8.5053" speedFactor="0.8588" arrival="56.00">
        <route edges="N_in S_out"/>
    </vehicle>

    <vehicle id="flow_15_phase1_W_right.0" type="moto" depart="0.00" departLane="0" departPos="31.8437" departSpeed="2.6276" speedFactor="0.8472" arrival="56.00">
        <route edges="N_in N_out"/>
    </vehicle>

    <vehicle id="flow_7_phase1_S_right.0" type="container" depart="0.00" departLane="0" departPos="8.759" departSpeed="8.0654" speedFactor="0.8488" arrival="57.00">
        <route edges="S_in E_out"/>
    </vehicle>

    <vehicle id="flow_13_phase1_W_straight.2" type="moto" depart="37.00" departLane="1" departPos="107.5311" departSpeed="1.1094" speedFactor="0.9279" arrival="63.00">
        <route edges="W_in E_out"/>
    </vehicle>

    <vehicle id="flow_9_phase1_E_straight.1" type="moto" depart="18.00" departLane="1" departPos="58.3562" departSpeed="8.3896" speedFactor="0.8727" arrival="65.00">
        <route edges="E_in W_out"/>
    </vehicle>

    <vehicle id="flow_12_phase1_E_uturn.0" type="moto" depart="0.00" departLane="0" departPos="5.6544" departSpeed="13.7593" speedFactor="1.0348" arrival="66.00">
        <route edges="E_in E_out"/>
    </vehicle>

    <vehicle id="flow_9_phase1_E_straight.2" type="moto" depart="35.00" departLane="1" departPos="52.8684" departSpeed="0.3845" speedFactor="0.9938" arrival="67.00">
        <route edges="E_in W_out"/>
    </vehicle>

    <vehicle id="flow_11_phase1_E_right.1" type="moto" depart="45.00" departLane="1" departPos="128.6773" departSpeed="3.0596" speedFactor="1.0365" arrival="68.00">
        <route edges="E_in N_out"/>
    </vehicle>

    <vehicle id="flow_5_phase1_S_straight.2" type="moto" depart="36.00" departLane="1" departPos="12.6982" departSpeed="12.4143" speedFactor="0.9623" arrival="76.00">
        <route edges="S_in N_out"/>
    </vehicle>

    <vehicle id="flow_3_phase1_N_right.1" type="moto" depart="47.00" departLane="0" departPos="166.0021" departSpeed="1.2818" speedFactor="0.8806" arrival="76.00">
        <route edges="N_in W_out"/>
    </vehicle>

    <vehicle id="flow_1_phase1_N_straight.2" type="bus" depart="37.00" departLane="1" departPos="59.5081" departSpeed="13.3195" speedFactor="0.9657" arrival="80.00">
        <route edges="N_in S_out"/>
    </vehicle>

    <vehicle id="flow_5_phase1_S_straight.3" type="moto" depart="54.00" departLane="0" departPos="56.1823" departSpeed="8.583" speedFactor="1.0764" arrival="80.00">
        <route edges="S_in N_out"/>
    </vehicle>

    <vehicle id="flow_1_phase1_N_straight.3" type="car" depart="56.00" departLane="0" departPos="125.4807" departSpeed="6.7924" speedFactor="1.0479" arrival="81.00">
        <route edges="N_in S_out"/>
    </vehicle>

    <vehicle id="flow_7_phase1_S_right.1" type="container" depart="45.00" departLane="1" departPos="66.71" departSpeed="7.8717" speedFactor="0.7845" arrival="83.00">
        <route edges="S_in E_out"/>
    </vehicle>

    <vehicle id="flow_15_phase1_W_right.1" type="moto" depart="45.00" departLane="0" departPos="73.8966" departSpeed="9.2239" speedFactor="1.0788" arrival="83.00">
        <route edges="N_in N_out"/>
    </vehicle>

    <vehicle id="flow_6_phase1_S_left.1" type="moto" depart="46.00" departLane="1" departPos="110.9191" departSpeed="11.9947" speedFactor="1.0453" arrival="84.00">
        <route edges="S_in W_out"/>
    </vehicle>

    <vehicle id="flow_13_phase1_W_straight.3" type="moto" depart="55.00" departLane="0" departPos="132.6219" departSpeed="5.486" speedFactor="1.2027" arrival="87.00">
        <route edges="W_in E_out"/>
    </vehicle>

    <vehicle id="flow_9_phase1_E_straight.3" type="bus" depart="53.00" departLane="0" departPos="86.4153" departSpeed="8.4123" speedFactor="0.8515" arrival="95.00">
        <route edges="E_in W_out"/>
    </vehicle>

    <vehicle id="flow_9_phase1_E_straight.4" type="bus" depart="70.00" departLane="1" departPos="135.0364" departSpeed="3.7231" speedFactor="0.9525" arrival="95.00">
        <route edges="E_in W_out"/>
    </vehicle>

    <vehicle id="flow_10_phase1_E_left.1" type="truck" depart="46.00" departLane="1" departPos="4.5211" departSpeed="3.8907" speedFactor="0.7665" arrival="98.00">
        <route edges="E_in S_out"/>
    </vehicle>

    <vehicle id="flow_5_phase1_S_straight.4" type="container" depart="72.00" departLane="0" departPos="26.7631" departSpeed="9.623" speedFactor="0.9706" arrival="101.00">
        <route edges="S_in N_out"/>
    </vehicle>

    <vehicle id="flow_14_phase1_W_left.1" type="container" depart="47.00" departLane="0" departPos="93.4122" departSpeed="11.7583" speedFactor="0.9146" arrival="108.00">
        <route edges="W_in N_out"/>
    </vehicle>

    <vehicle id="flow_5_phase1_S_straight.5" type="moto" depart="90.00" departLane="0" departPos="179.131" departSpeed="7.484" speedFactor="0.9517" arrival="108.00">
        <route edges="S_in N_out"/>
    </vehicle>

    <vehicle id="flow_2_phase1_N_left.1" type="moto" depart="45.00" departLane="0" departPos="8.8817" departSpeed="2.8196" speedFactor="1.1228" arrival="110.00">
        <route edges="N_in E_out"/>
    </vehicle>

    <vehicle id="flow_11_phase1_E_right.2" type="emergency" depart="89.00" departLane="1" departPos="112.3734" departSpeed="10.3998" speedFactor="1.0989" arrival="111.00">
        <route edges="E_in N_out"/>
    </vehicle>

    <vehicle id="flow_1_phase1_N_straight.4" type="truck" depart="74.00" departLane="0" departPos="128.0429" departSpeed="4.9925" speedFactor="0.9194" arrival="112.00">
        <route edges="N_in S_out"/>
    </vehicle>

    <vehicle id="flow_9_phase1_E_straight.5" type="moto" depart="88.00" departLane="1" departPos="29.1154" departSpeed="12.0849" speedFactor="1.0283" arrival="116.00">
        <route edges="E_in W_out"/>
    </vehicle>

    <vehicle id="flow_13_phase1_W_straight.4" type="bus" depart="73.00" departLane="0" departPos="91.0122" departSpeed="4.4892" speedFactor="0.8691" arrival="120.00">
        <route edges="W_in E_out"/>
    </vehicle>

    <vehicle id="flow_13_phase1_W_straight.5" type="moto" depart="91.00" departLane="1" departPos="74.602" departSpeed="11.8331" speedFactor="1.0390" arrival="122.00">
        <route edges="W_in E_out"/>
    </vehicle>

    <vehicle id="flow_12_phase1_E_uturn.1" type="moto" depart="90.00" departLane="0" departPos="31.7588" departSpeed="11.7707" speedFactor="0.9374" arrival="123.00">
        <route edges="E_in E_out"/>
    </vehicle>

    <vehicle id="flow_16_phase1_W_uturn.1" type="truck" depart="90.00" departLane="1" departPos="124.8757" departSpeed="0.0106" speedFactor="0.8923" arrival="125.00">
        <route edges="W_in W_out"/>
    </vehicle>

    <vehicle id="flow_3_phase1_N_right.2" type="moto" depart="93.00" departLane="1" departPos="63.1043" departSpeed="7.1052" speedFactor="1.1043" arrival="125.00">
        <route edges="N_in W_out"/>
    </vehicle>

    <vehicle id="flow_7_phase1_S_right.2" type="moto" depart="89.00" departLane="0" departPos="52.573" departSpeed="9.361" speedFactor="1.1432" arrival="126.00">
        <route edges="S_in E_out"/>
    </vehicle>

    <vehicle id="flow_1_phase1_N_straight.5" type="moto" depart="92.00" departLane="1" departPos="177.4982" departSpeed="6.1115" speedFactor="0.9020" arrival="129.00">
        <route edges="N_in S_out"/>
    </vehicle>

    <vehicle id="flow_8_phase1_S_uturn.1" type="moto" depart="90.00" departLane="0" departPos="168.2148" departSpeed="0.1806" speedFactor="0.8882" arrival="131.00">
        <route edges="S_in S_out"/>
    </vehicle>

    <vehicle id="flow_6_phase1_S_left.2" type="moto" depart="91.00" departLane="1" departPos="92.2234" departSpeed="0.173" speedFactor="1.0668" arrival="131.00">
        <route edges="S_in W_out"/>
    </vehicle>

    <vehicle id="flow_4_phase1_N_uturn.1" type="truck" depart="90.00" departLane="1" departPos="162.4039" departSpeed="1.3436" speedFactor="0.9396" arrival="133.00">
        <route edges="N_in N_out"/>
    </vehicle>

    <vehicle id="flow_5_phase1_S_straight.6" type="moto" depart="108.00" departLane="1" departPos="29.8839" departSpeed="12.2398" speedFactor="1.0983" arrival="135.00">
        <route edges="S_in N_out"/>
    </vehicle>

    <vehicle id="flow_2_phase1_N_left.2" type="moto" depart="89.00" departLane="0" departPos="125.7621" departSpeed="4.7721" speedFactor="0.9964" arrival="140.00">
        <route edges="N_in E_out"/>
    </vehicle>

    <vehicle id="flow_9_phase1_E_straight.6" type="moto" depart="105.00" departLane="1" departPos="84.296" departSpeed="10.2557" speedFactor="1.0203" arrival="141.00">
        <route edges="E_in W_out"/>
    </vehicle>

    <vehicle id="flow_13_phase1_W_straight.6" type="car" depart="109.00" departLane="0" departPos="149.6933" departSpeed="1.7566" speedFactor="0.9759" arrival="141.00">
        <route edges="W_in E_out"/>
    </vehicle>

    <vehicle id="flow_10_phase1_E_left.2" type="moto" depart="91.00" departLane="1" departPos="21.6793" departSpeed="6.5338" speedFactor="1.1413" arrival="144.00">
        <route edges="E_in S_out"/>
    </vehicle>

    <vehicle id="flow_15_phase1_W_right.2" type="moto" depart="90.00" departLane="1" departPos="89.1662" departSpeed="11.3855" speedFactor="1.0265" arrival="145.00">
        <route edges="N_in N_out"/>
    </vehicle>

    <vehicle id="flow_9_phase1_E_straight.7" type="moto" depart="123.00" departLane="1" departPos="174.3479" departSpeed="2.7383" speedFactor="1.0085" arrival="146.00">
        <route edges="E_in W_out"/>
    </vehicle>

    <vehicle id="flow_14_phase1_W_left.2" type="car" depart="94.00" departLane="1" departPos="84.6621" departSpeed="1.913" speedFactor="0.8975" arrival="151.00">
        <route edges="W_in N_out"/>
    </vehicle>

    <vehicle id="flow_1_phase1_N_straight.6" type="car" depart="111.00" departLane="0" departPos="42.8454" departSpeed="1.3305" speedFactor="0.9797" arrival="153.00">
        <route edges="N_in S_out"/>
    </vehicle>

    <vehicle id="flow_1_phase1_N_straight.7" type="moto" depart="129.00" departLane="0" departPos="174.056" departSpeed="3.2586" speedFactor="1.0626" arrival="153.00">
        <route edges="N_in S_out"/>
    </vehicle>

    <vehicle id="flow_7_phase1_S_right.3" type="moto" depart="133.00" departLane="1" departPos="76.4696" departSpeed="11.7746" speedFactor="1.0682" arrival="158.00">
        <route edges="S_in E_out"/>
    </vehicle>

    <vehicle id="flow_5_phase1_S_straight.7" type="bus" depart="126.00" departLane="0" departPos="161.3057" departSpeed="3.1477" speedFactor="0.9040" arrival="159.00">
        <route edges="S_in N_out"/>
    </vehicle>

    <vehicle id="flow_2_phase1_N_left.3" type="moto" depart="134.00" departLane="1" departPos="126.2936" departSpeed="9.1452" speedFactor="0.8878" arrival="162.00">
        <route edges="N_in E_out"/>
    </vehicle>

    <vehicle id="flow_14_phase1_W_left.3" type="moto" depart="141.00" departLane="1" departPos="103.4641" departSpeed="3.4813" speedFactor="1.0873" arrival="165.00">
        <route edges="W_in N_out"/>
    </vehicle>

    <vehicle id="flow_13_phase1_W_straight.7" type="moto" depart="128.00" departLane="1" departPos="45.2041" departSpeed="2.1194" speedFactor="0.8003" arrival="170.00">
        <route edges="W_in E_out"/>
    </vehicle>

    <vehicle id="flow_11_phase1_E_right.3" type="moto" depart="133.00" departLane="0" departPos="6.5659" departSpeed="6.595" speedFactor="0.8330" arrival="171.00">
        <route edges="E_in N_out"/>
    </vehicle>

    <vehicle id="flow_10_phase1_E_left.3" type="truck" depart="137.00" departLane="0" departPos="114.6211" departSpeed="10.9413" speedFactor="1.0651" arrival="171.00">
        <route edges="E_in S_out"/>
    </vehicle>

    <vehicle id="flow_9_phase1_E_straight.8" type="moto" depart="140.00" departLane="1" departPos="2.2093" departSpeed="6.8921" speedFactor="0.9385" arrival="174.00">
        <route edges="E_in W_out"/>
    </vehicle>

    <vehicle id="flow_15_phase1_W_right.3" type="moto" depart="134.00" departLane="0" departPos="1.3904" departSpeed="7.2913" speedFactor="1.1705" arrival="177.00">
        <route edges="N_in N_out"/>
    </vehicle>

    <vehicle id="flow_5_phase1_S_straight.8" type="emergency" depart="144.00" departLane="1" departPos="42.0768" departSpeed="14.3132" speedFactor="1.1380" arrival="177.00">
        <route edges="S_in N_out"/>
    </vehicle>

    <vehicle id="flow_3_phase1_N_right.3" type="moto" depart="140.00" departLane="0" departPos="74.7856" departSpeed="13.1323" speedFactor="0.9618" arrival="180.00">
        <route edges="N_in W_out"/>
    </vehicle>

    <vehicle id="flow_1_phase1_N_straight.8" type="moto" depart="147.00" departLane="1" departPos="84.7431" departSpeed="3.5745" speedFactor="0.9730" arrival="181.00">
        <route edges="N_in S_out"/>
    </vehicle>

    <vehicle id="flow_6_phase1_S_left.3" type="car" depart="137.00" departLane="0" departPos="81.5805" departSpeed="1.2973" speedFactor="1.0972" arrival="184.00">
        <route edges="S_in W_out"/>
    </vehicle>

    <vehicle id="flow_5_phase1_S_straight.9" type="moto" depart="162.00" departLane="1" departPos="69.3051" departSpeed="14.9998" speedFactor="1.2976" arrival="184.00">
        <route edges="S_in N_out"/>
    </vehicle>

    <vehicle id="flow_13_phase1_W_straight.8" type="moto" depart="146.00" departLane="0" departPos="35.6434" departSpeed="3.3434" speedFactor="1.0413" arrival="192.00">
        <route edges="W_in E_out"/>
    </vehicle>

    <vehicle id="flow_13_phase1_W_straight.9" type="moto" depart="164.00" departLane="1" departPos="109.1161" departSpeed="2.4692" speedFactor="0.8391" arrival="193.00">
        <route edges="W_in E_out"/>
    </vehicle>

    <vehicle id="flow_9_phase1_E_straight.9" type="truck" depart="158.00" departLane="0" departPos="157.0309" departSpeed="10.5982" speedFactor="1.0019" arrival="196.00">
        <route edges="E_in W_out"/>
    </vehicle>

    <vehicle id="flow_11_phase1_E_right.4" type="container" depart="177.00" departLane="0" departPos="133.5146" departSpeed="8.1699" speedFactor="1.0240" arrival="202.00">
        <route edges="E_in N_out"/>
    </vehicle>

    <vehicle id="flow_1_phase1_N_straight.9" type="truck" depart="166.00" departLane="1" departPos="5.9732" departSpeed="0.4239" speedFactor="0.9670" arrival="204.00">
        <route edges="N_in S_out"/>
    </vehicle>

    <vehicle id="flow_7_phase1_S_right.4" type="moto" depart="177.00" departLane="1" departPos="150.7313" departSpeed="0.5302" speedFactor="0.9645" arrival="205.00">
        <route edges="S_in E_out"/>
    </vehicle>

    <vehicle id="flow_3_phase1_N_right.4" type="moto" depart="186.00" departLane="0" departPos="172.0661" departSpeed="4.7289" speedFactor="1.0387" arrival="206.00">
        <route edges="N_in W_out"/>
    </vehicle>

    <vehicle id="flow_8_phase1_S_uturn.2" type="moto" depart="179.00" departLane="1" departPos="55.6396" departSpeed="12.2131" speedFactor="0.9897" arrival="210.00">
        <route edges="S_in S_out"/>
    </vehicle>

    <vehicle id="flow_5_phase1_S_straight.10" type="moto" depart="180.00" departLane="0" departPos="2.1035" departSpeed="10.5656" speedFactor="1.0281" arrival="210.00">
        <route edges="S_in N_out"/>
    </vehicle>

    <vehicle id="flow_1_phase1_N_straight.10" type="bus" depart="184.00" departLane="1" departPos="131.4461" departSpeed="3.4529" speedFactor="1.0325" arrival="212.00">
        <route edges="N_in S_out"/>
    </vehicle>

    <vehicle id="flow_15_phase1_W_right.4" type="bus" depart="179.00" departLane="1" departPos="188.5725" departSpeed="1.0265" speedFactor="0.9032" arrival="216.00">
        <route edges="N_in N_out"/>
    </vehicle>

    <vehicle id="flow_6_phase1_S_left.4" type="moto" depart="182.00" departLane="0" departPos="5.0473" departSpeed="11.5237" speedFactor="1.0387" arrival="216.00">
        <route edges="S_in W_out"/>
    </vehicle>

    <vehicle id="flow_9_phase1_E_straight.10" type="moto" depart="175.00" departLane="0" departPos="65.0172" departSpeed="3.1319" speedFactor="1.1157" arrival="217.00">
        <route edges="E_in W_out"/>
    </vehicle>

    <vehicle id="flow_13_phase1_W_straight.10" type="moto" depart="182.00" departLane="0" departPos="123.2337" departSpeed="13.3863" speedFactor="1.1421" arrival="217.00">
        <route edges="W_in E_out"/>
    </vehicle>

    <vehicle id="flow_9_phase1_E_straight.11" type="moto" depart="193.00" departLane="1" departPos="60.9644" departSpeed="13.9077" speedFactor="1.0448" arrival="221.00">
        <route edges="E_in W_out"/>
    </vehicle>

    <vehicle id="flow_13_phase1_W_straight.11" type="moto" depart="200.00" departLane="1" departPos="162.1669" departSpeed="12.1973" speedFactor="1.0140" arrival="223.00">
        <route edges="W_in E_out"/>
    </vehicle>

    <vehicle id="flow_16_phase1_W_uturn.2" type="car" depart="180.00" departLane="1" departPos="146.8151" departSpeed="11.3045" speedFactor="0.8850" arrival="226.00">
        <route edges="W_in W_out"/>
    </vehicle>

    <vehicle id="flow_12_phase1_E_uturn.2" type="bus" depart="179.00" departLane="1" departPos="60.4969" departSpeed="2.7964" speedFactor="0.9315" arrival="229.00">
        <route edges="E_in E_out"/>
    </vehicle>

    <vehicle id="flow_5_phase1_S_straight.12" type="moto" depart="216.00" departLane="0" departPos="169.1917" departSpeed="9.4858" speedFactor="1.0699" arrival="233.00">
        <route edges="S_in N_out"/>
    </vehicle>

    <vehicle id="flow_5_phase1_S_straight.11" type="bus" depart="198.00" departLane="1" departPos="66.1547" departSpeed="11.5919" speedFactor="0.9784" arrival="236.00">
        <route edges="S_in N_out"/>
    </vehicle>

    <vehicle id="flow_2_phase1_N_left.4" type="moto" depart="178.00" departLane="0" departPos="72.9854" departSpeed="7.664" speedFactor="1.1571" arrival="238.00">
        <route edges="N_in E_out"/>
    </vehicle>

    <vehicle id="flow_4_phase1_N_uturn.2" type="car" depart="180.00" departLane="1" departPos="9.1985" departSpeed="9.4057" speedFactor="1.0323" arrival="239.00">
        <route edges="N_in N_out"/>
    </vehicle>

    <vehicle id="flow_1_phase1_N_straight.11" type="truck" depart="202.00" departLane="1" departPos="11.9624" departSpeed="0.7219" speedFactor="0.9137" arrival="240.00">
        <route edges="N_in S_out"/>
    </vehicle>

    <vehicle id="flow_13_phase1_W_straight.12" type="moto" depart="218.00" departLane="1" departPos="170.5857" departSpeed="4.7561" speedFactor="1.1365" arrival="242.00">
        <route edges="W_in E_out"/>
    </vehicle>

    <vehicle id="flow_9_phase1_E_straight.12" type="moto" depart="210.00" departLane="1" departPos="102.4537" departSpeed="0.602" speedFactor="1.0047" arrival="244.00">
        <route edges="E_in W_out"/>
    </vehicle>

    <vehicle id="flow_10_phase1_E_left.4" type="moto" depart="182.00" departLane="1" departPos="34.8311" departSpeed="6.5373" speedFactor="1.0039" arrival="248.00">
        <route edges="E_in S_out"/>
    </vehicle>

    <vehicle id="flow_11_phase1_E_right.5" type="moto" depart="221.00" departLane="1" departPos="21.3277" departSpeed="8.2011" speedFactor="1.2552" arrival="248.00">
        <route edges="E_in N_out"/>
    </vehicle>

    <vehicle id="flow_14_phase1_W_left.4" type="bus" depart="188.00" departLane="0" departPos="3.1111" departSpeed="6.8842" speedFactor="0.8196" arrival="254.00">
        <route edges="W_in N_out"/>
    </vehicle>

    <vehicle id="flow_15_phase1_W_right.5" type="car" depart="223.00" departLane="0" departPos="170.7684" departSpeed="5.6736" speedFactor="0.9653" arrival="257.00">
        <route edges="N_in N_out"/>
    </vehicle>

    <vehicle id="flow_7_phase1_S_right.5" type="truck" depart="221.00" departLane="0" departPos="28.3376" departSpeed="11.943" speedFactor="1.0532" arrival="260.00">
        <route edges="S_in E_out"/>
    </vehicle>

    <vehicle id="flow_5_phase1_S_straight.13" type="moto" depart="234.00" departLane="0" departPos="114.397" departSpeed="15.5331" speedFactor="1.2148" arrival="260.00">
        <route edges="S_in N_out"/>
    </vehicle>

    <vehicle id="flow_1_phase1_N_straight.12" type="truck" depart="221.00" departLane="0" departPos="128.7404" departSpeed="3.4925" speedFactor="0.9615" arrival="261.00">
        <route edges="N_in S_out"/>
    </vehicle>

    <vehicle id="flow_3_phase1_N_right.5" type="moto" depart="232.00" departLane="1" departPos="43.1771" departSpeed="2.9855" speedFactor="0.9059" arrival="265.00">
        <route edges="N_in W_out"/>
    </vehicle>

    <vehicle id="flow_2_phase1_N_left.5" type="car" depart="222.00" departLane="1" departPos="38.4375" departSpeed="1.013" speedFactor="0.8868" arrival="267.00">
        <route edges="N_in E_out"/>
    </vehicle>

    <vehicle id="flow_6_phase1_S_left.5" type="bus" depart="227.00" departLane="1" departPos="167.1176" departSpeed="0.8225" speedFactor="0.9819" arrival="271.00">
        <route edges="S_in W_out"/>
    </vehicle>

    <vehicle id="flow_9_phase1_E_straight.13" type="moto" depart="228.00" departLane="0" departPos="98.6919" departSpeed="1.5426" speedFactor="0.9282" arrival="271.00">
        <route edges="E_in W_out"/>
    </vehicle>

    <vehicle id="flow_13_phase1_W_straight.13" type="moto" depart="237.00" departLane="1" departPos="0.9771" departSpeed="7.6354" speedFactor="0.8917" arrival="272.00">
        <route edges="W_in E_out"/>
    </vehicle>

    <vehicle id="flow_10_phase1_E_left.5" type="moto" depart="228.00" departLane="1" departPos="50.8725" departSpeed="12.89" speedFactor="1.0856" arrival="274.00">
        <route edges="E_in S_out"/>
    </vehicle>

    <vehicle id="flow_9_phase1_E_straight.14" type="moto" depart="245.00" departLane="0" departPos="27.7577" departSpeed="10.036" speedFactor="0.8543" arrival="278.00">
        <route edges="E_in W_out"/>
    </vehicle>

    <vehicle id="flow_14_phase1_W_left.5" type="bus" depart="234.00" departLane="1" departPos="120.4896" departSpeed="13.1515" speedFactor="0.9554" arrival="283.00">
        <route edges="W_in N_out"/>
    </vehicle>

    <vehicle id="flow_7_phase1_S_right.6" type="car" depart="265.00" departLane="0" departPos="154.1317" departSpeed="12.3515" speedFactor="1.1275" arrival="284.00">
        <route edges="S_in E_out"/>
    </vehicle>

    <vehicle id="flow_1_phase1_N_straight.14" type="car" depart="257.00" departLane="0" departPos="122.1483" departSpeed="0.7085" speedFactor="0.9718" arrival="286.00">
        <route edges="N_in S_out"/>
    </vehicle>

    <vehicle id="flow_1_phase1_N_straight.13" type="truck" depart="239.00" departLane="1" departPos="138.898" departSpeed="11.4623" speedFactor="0.9465" arrival="288.00">
        <route edges="N_in S_out"/>
    </vehicle>

    <vehicle id="flow_15_phase1_W_right.6" type="moto" depart="268.00" departLane="0" departPos="175.8273" departSpeed="1.7882" speedFactor="1.0747" arrival="289.00">
        <route edges="N_in N_out"/>
    </vehicle>

    <vehicle id="flow_5_phase1_S_straight.14" type="car" depart="252.00" departLane="1" departPos="22.618" departSpeed="0.1601" speedFactor="0.8047" arrival="291.00">
        <route edges="S_in N_out"/>
    </vehicle>

    <vehicle id="flow_13_phase1_W_straight.15" type="car" depart="273.00" departLane="1" departPos="174.8493" departSpeed="5.9788" speedFactor="1.0262" arrival="295.00">
        <route edges="W_in E_out"/>
    </vehicle>

    <vehicle id="flow_13_phase1_W_straight.14" type="moto" depart="255.00" departLane="0" departPos="7.5649" departSpeed="12.9916" speedFactor="1.1523" arrival="296.00">
        <route edges="W_in E_out"/>
    </vehicle>

    <vehicle id="flow_9_phase1_E_straight.15" type="bus" depart="263.00" departLane="0" departPos="100.2317" departSpeed="9.1984" speedFactor="0.8815" arrival="301.00">
        <route edges="E_in W_out"/>
    </vehicle>

    <vehicle id="flow_11_phase1_E_right.6" type="car" depart="265.00" departLane="0" departPos="98.4033" departSpeed="5.8446" speedFactor="0.9838" arrival="301.00">
        <route edges="E_in N_out"/>
    </vehicle>

    <vehicle id="flow_10_phase1_E_left.6" type="bus" depart="273.00" departLane="1" departPos="165.4841" departSpeed="10.5287" speedFactor="0.9234" arrival="305.00">
        <route edges="E_in S_out"/>
    </vehicle>

    <vehicle id="flow_12_phase1_E_uturn.3" type="car" depart="268.00" departLane="0" departPos="15.6422" departSpeed="6.9207" speedFactor="0.8963" arrival="307.00">
        <route edges="E_in E_out"/>
    </vehicle>

    <vehicle id="flow_16_phase1_W_uturn.3" type="bus" depart="270.00" departLane="1" departPos="46.7196" departSpeed="2.477" speedFactor="0.9363" arrival="309.00">
        <route edges="W_in W_out"/>
    </vehicle>

    <vehicle id="flow_4_phase1_N_uturn.3" type="car" depart="269.00" departLane="0" departPos="116.1788" departSpeed="1.7022" speedFactor="0.9559" arrival="312.00">
        <route edges="N_in N_out"/>
    </vehicle>

    <vehicle id="flow_3_phase1_N_right.6" type="truck" depart="279.00" departLane="1" departPos="147.9348" departSpeed="3.6468" speedFactor="0.9035" arrival="313.00">
        <route edges="N_in W_out"/>
    </vehicle>

    <vehicle id="flow_1_phase1_N_straight.15" type="car" depart="276.00" departLane="0" departPos="15.5939" departSpeed="12.4824" speedFactor="0.9311" arrival="314.00">
        <route edges="N_in S_out"/>
    </vehicle>

    <vehicle id="flow_5_phase1_S_straight.15" type="container" depart="270.00" departLane="1" departPos="163.2859" departSpeed="1.4602" speedFactor="0.9628" arrival="317.00">