<?xml version="1.0" encoding="UTF-8"?>

<!-- generated on 2025-12-09 22:52:08 by Eclipse SUMO sumo Version 1.18.0
<configuration xmlns:xsi="http://www.w3.org/2001/XMLSchema-instance" xsi:noNamespaceSchemaLocation="http://sumo.dlr.de/xsd/sumoConfiguration.xsd">

    <input>
        <net-file value="/workspace/nets/60p2k/net.net.xml"/>
        <route-files value="/workspace/nets/60p2k/route_temp_612_137971484654080_15553294.rou.xml"/>
    </input>

    <output>
        <summary-output value="results/summary_ep_4.xml"/>
        <tripinfo-output value="results/tripinfo_ep_4.xml"/>
        <vehroute-output value="results/vehroute_ep_4.xml"/>
    </output>

    <time>
        <begin value="0"/>
    </time>

    <report>
        <verbose value="true"/>
        <no-step-log value="true"/>
    </report>

    <traci_server>
        <remote-port value="46773"/>
    </traci_server>

    <gui_only>
        <gui-settings-file value="/workspace/nets/60p2k/gui-settings.xml"/>
        <quit-on-end value="true"/>
    </gui_only>

</configuration>
-->

<routes xmlns:xsi="http://www.w3.org/2001/XMLSchema-instance" xsi:noNamespaceSchemaLocation="http://sumo.dlr.de/xsd/routes_file.xsd">
    <vehicle id="flow_12_phase1_E_uturn.0" type="moto" depart="0.00" departLane="0" departPos="129.8894" departSpeed="13.7593" speedFactor="1.0348" arrival="22.00">
        <route edges="N_in W_out"/>
    </vehicle>

    <vehicle id="flow_3_phase1_N_right.0" type="car" depart="0.00" departLane="0" departPos="103.3842" departSpeed="3.7523" speedFactor="1.0907" arrival="24.00">
        <route edges="N_in W_out"/>
    </vehicle>

    <vehicle id="flow_8_phase1_S_uturn.0" type="moto" depart="0.00" departLane="0" departPos="120.1072" departSpeed="4.4837" speedFactor="1.0505" arrival="24.00">
        <route edges="S_in S_out"/>
    </vehicle>

    <vehicle id="flow_5_phase1_S_straight.0" type="moto" depart="0.00" departLane="1" departPos="107.3659" departSpeed="7.2113" speedFactor="1.1475" arrival="25.00">
        <route edges="S_in N_out"/>
    </vehicle>

    <vehicle id="flow_6_phase1_S_left.0" type="moto" depart="0.00" departLane="1" departPos="166.0107" departSpeed="0.7376" speedFactor="0.8806" arrival="25.00">
        <route edges="S_in W_out"/>
    </vehicle>

    <vehicle id="flow_14_phase1_W_left.0" type="moto" depart="0.00" departLane="1" departPos="50.0682" departSpeed="13.5426" speedFactor="1.0101" arrival="28.00">
        <route edges="S_in E_out"/>
    </vehicle>

    <vehicle id="flow_4_phase1_N_uturn.0" type="car" depart="0.00" departLane="1" departPos="127.6015" departSpeed="0.0774" speedFactor="0.9228" arrival="31.00">
        <route edges="N_in N_out"/>
    </vehicle>

    <vehicle id="flow_16_phase1_W_uturn.0" type="moto" depart="0.00" departLane="0" departPos="126.6766" departSpeed="11.7148" speedFactor="1.0383" arrival="37.00">
        <route edges="W_in W_out"/>
    </vehicle>

    <vehicle id="flow_15_phase1_W_right.0" type="moto" depart="0.00" departLane="1" departPos="108.377" departSpeed="1.9778" speedFactor="0.8472" arrival="39.00">
        <route edges="W_in S_out"/>
    </vehicle>

    <vehicle id="flow_13_phase1_W_straight.1" type="car" depart="19.00" departLane="1" departPos="121.6549" departSpeed="2.8591" speedFactor="1.1218" arrival="40.00">
        <route edges="W_in E_out"/>
    </vehicle>

    <vehicle id="flow_9_phase1_E_straight.0" type="truck" depart="0.00" departLane="0" departPos="168.2937" departSpeed="9.8263" speedFactor="0.8990" arrival="41.00">
        <route edges="E_in W_out"/>
    </vehicle>

    <vehicle id="flow_13_phase1_W_straight.0" type="container" depart="0.00" departLane="0" departPos="23.7725" departSpeed="1.4795" speedFactor="0.8227" arrival="41.00">
        <route edges="W_in E_out"/>
    </vehicle>

    <vehicle id="flow_11_phase1_E_right.0" type="bus" depart="0.00" departLane="1" departPos="144.9496" departSpeed="4.0187" speedFactor="0.9581" arrival="42.00">
        <route edges="E_in N_out"/>
    </vehicle>

    <vehicle id="flow_10_phase1_E_left.0" type="truck" depart="0.00" departLane="0" departPos="44.8816" departSpeed="7.6878" speedFactor="1.0161" arrival="50.00">
        <route edges="E_in S_out"/>
    </vehicle>

    <vehicle id="flow_5_phase1_S_straight.1" type="moto" depart="18.00" departLane="0" departPos="131.129" departSpeed="9.5396" speedFactor="1.1582" arrival="50.00">
        <route edges="S_in N_out"/>
    </vehicle>

    <vehicle id="flow_2_phase1_N_left.0" type="moto" depart="0.00" departLane="1" departPos="8.2688" departSpeed="8.3291" speedFactor="1.0157" arrival="55.00">
        <route edges="N_in E_out"/>
    </vehicle>

    <vehicle id="flow_1_phase1_N_straight.1" type="moto" depart="19.00" departLane="1" departPos="31.9285" departSpeed="9.2811" speedFactor="1.1853" arrival="55.00">
        <route edges="N_in S_out"/>
    </vehicle>

    <vehicle id="flow_1_phase1_N_straight.0" type="bus" depart="0.00" departLane="0" departPos="8.6229" departSpeed="8.5053" speedFactor="0.8588" arrival="56.00">
        <route edges="N_in S_out"/>
    </vehicle>

    <vehicle id="flow_7_phase1_S_right.0" type="container" depart="0.00" departLane="0" departPos="8.759" departSpeed="8.0654" speedFactor="0.8488" arrival="58.00">
        <route edges="S_in E_out"/>
    </vehicle>

    <vehicle id="flow_13_phase1_W_straight.2" type="moto" depart="37.00" departLane="1" departPos="107.5311" departSpeed="1.1094" speedFactor="0.9279" arrival="63.00">
        <route edges="W_in E_out"/>
    </vehicle>

    <vehicle id="flow_9_phase1_E_straight.1" type="moto" depart="18.00" departLane="1" departPos="58.3562" departSpeed="11.6446" speedFactor="0.8727" arrival="65.00">
        <route edges="E_in W_out"/>
    </vehicle>

    <vehicle id="flow_9_phase1_E_straight.2" type="moto" depart="35.00" departLane="1" departPos="52.8684" departSpeed="0.3845" speedFactor="0.9938" arrival="65.00">
        <route edges="E_in W_out"/>
    </vehicle>

    <vehicle id="flow_11_phase1_E_right.1" type="moto" depart="45.00" departLane="1" departPos="128.6773" departSpeed="3.0596" speedFactor="1.0365" arrival="68.00">
        <route edges="E_in N_out"/>
    </vehicle>

    <vehicle id="flow_15_phase1_W_right.1" type="moto" depart="45.00" departLane="0" departPos="73.8966" departSpeed="9.2239" speedFactor="1.0788" arrival="70.00">
        <route edges="W_in S_out"/>
    </vehicle>

    <vehicle id="flow_1_phase1_N_straight.3" type="car" depart="56.00" departLane="0" departPos="148.0778" departSpeed="9.6399" speedFactor="1.0479" arrival="75.00">
        <route edges="N_in S_out"/>
    </vehicle>

    <vehicle id="flow_5_phase1_S_straight.2" type="moto" depart="36.00" departLane="1" departPos="12.6982" departSpeed="12.4143" speedFactor="0.9623" arrival="76.00">
        <route edges="S_in N_out"/>
    </vehicle>

    <vehicle id="flow_3_phase1_N_right.1" type="moto" depart="47.00" departLane="0" departPos="166.0021" departSpeed="1.2818" speedFactor="0.8806" arrival="78.00">
        <route edges="N_in W_out"/>
    </vehicle>

    <vehicle id="flow_1_phase1_N_straight.2" type="bus" depart="37.00" departLane="1" departPos="59.5081" departSpeed="13.3195" speedFactor="0.9657" arrival="81.00">
        <route edges="N_in S_out"/>
    </vehicle>

    <vehicle id="flow_6_phase1_S_left.1" type="moto" depart="46.00" departLane="1" departPos="110.9191" departSpeed="11.9947" speedFactor="1.0453" arrival="82.00">
        <route edges="S_in W_out"/>
    </vehicle>

    <vehicle id="flow_14_phase1_W_left.1" type="container" depart="47.00" departLane="0" departPos="134.7579" departSpeed="11.7583" speedFactor="0.9146" arrival="82.00">
        <route edges="S_in E_out"/>
    </vehicle>

    <vehicle id="flow_5_phase1_S_straight.3" type="moto" depart="54.00" departLane="1" departPos="77.9408" departSpeed="4.4335" speedFactor="1.0764" arrival="83.00">
        <route edges="S_in N_out"/>
    </vehicle>

    <vehicle id="flow_2_phase1_N_left.1" type="moto" depart="45.00" departLane="0" departPos="8.8817" departSpeed="2.8196" speedFactor="1.1228" arrival="86.00">
        <route edges="N_in E_out"/>
    </vehicle>

    <vehicle id="flow_7_phase1_S_right.1" type="container" depart="45.00" departLane="1" departPos="66.71" departSpeed="7.8717" speedFactor="0.7845" arrival="88.00">
        <route edges="S_in E_out"/>
    </vehicle>

    <vehicle id="flow_13_phase1_W_straight.3" type="moto" depart="55.00" departLane="0" departPos="19.2493" departSpeed="11.1917" speedFactor="1.2027" arrival="88.00">
        <route edges="W_in E_out"/>
    </vehicle>

    <vehicle id="flow_9_phase1_E_straight.3" type="bus" depart="53.00" departLane="1" departPos="108.7646" departSpeed="10.3425" speedFactor="0.8515" arrival="94.00">
        <route edges="E_in W_out"/>
    </vehicle>

    <vehicle id="flow_10_phase1_E_left.1" type="truck" depart="46.00" departLane="1" departPos="4.5211" departSpeed="3.8907" speedFactor="0.7665" arrival="100.00">
        <route edges="E_in S_out"/>
    </vehicle>

    <vehicle id="flow_1_phase1_N_straight.4" type="truck" depart="74.00" departLane="0" departPos="185.4693" departSpeed="3.5649" speedFactor="0.9194" arrival="106.00">
        <route edges="N_in S_out"/>
    </vehicle>

    <vehicle id="flow_5_phase1_S_straight.4" type="container" depart="72.00" departLane="0" departPos="167.2268" departSpeed="1.9044" speedFactor="0.9706" arrival="109.00">
        <route edges="S_in N_out"/>
    </vehicle>

    <vehicle id="flow_9_phase1_E_straight.5" type="moto" depart="88.00" departLane="1" departPos="171.4793" departSpeed="2.1949" speedFactor="1.0283" arrival="114.00">
        <route edges="E_in W_out"/>
    </vehicle>

    <vehicle id="flow_11_phase1_E_right.2" type="emergency" depart="89.00" departLane="1" departPos="108.7048" departSpeed="9.0531" speedFactor="1.0989" arrival="117.00">
        <route edges="E_in N_out"/>
    </vehicle>

    <vehicle id="flow_15_phase1_W_right.2" type="moto" depart="90.00" departLane="1" departPos="89.1662" departSpeed="11.3855" speedFactor="1.0265" arrival="118.00">
        <route edges="W_in S_out"/>
    </vehicle>

    <vehicle id="flow_9_phase1_E_straight.4" type="bus" depart="70.00" departLane="1" departPos="23.5668" departSpeed="9.4296" speedFactor="0.9525" arrival="119.00">
        <route edges="E_in W_out"/>
    </vehicle>

    <vehicle id="flow_13_phase1_W_straight.4" type="bus" depart="73.00" departLane="0" departPos="8.0759" departSpeed="5.7989" speedFactor="0.8691" arrival="120.00">
        <route edges="W_in E_out"/>
    </vehicle>

    <vehicle id="flow_10_phase1_E_left.2" type="moto" depart="91.00" departLane="1" departPos="21.6793" departSpeed="6.5338" speedFactor="1.1413" arrival="121.00">
        <route edges="E_in S_out"/>
    </vehicle>

    <vehicle id="flow_13_phase1_W_straight.5" type="moto" depart="91.00" departLane="1" departPos="74.602" departSpeed="11.8331" speedFactor="1.0390" arrival="122.00">
        <route edges="W_in E_out"/>
    </vehicle>

    <vehicle id="flow_16_phase1_W_uturn.1" type="truck" depart="90.00" departLane="1" departPos="124.8757" departSpeed="0.0106" speedFactor="0.8923" arrival="125.00">
        <route edges="W_in W_out"/>
    </vehicle>

    <vehicle id="flow_7_phase1_S_right.2" type="moto" depart="89.00" departLane="0" departPos="71.9448" departSpeed="4.4062" speedFactor="1.1432" arrival="127.00">
        <route edges="S_in E_out"/>
    </vehicle>

    <vehicle id="flow_12_phase1_E_uturn.1" type="moto" depart="90.00" departLane="0" departPos="31.7588" departSpeed="11.7707" speedFactor="0.9374" arrival="127.00">
        <route edges="N_in W_out"/>
    </vehicle>

    <vehicle id="flow_5_phase1_S_straight.5" type="moto" depart="90.00" departLane="0" departPos="104.1356" departSpeed="12.4982" speedFactor="0.9517" arrival="128.00">
        <route edges="S_in N_out"/>
    </vehicle>

    <vehicle id="flow_8_phase1_S_uturn.1" type="moto" depart="90.00" departLane="1" departPos="168.2148" departSpeed="11.6281" speedFactor="0.8882" arrival="129.00">
        <route edges="S_in S_out"/>
    </vehicle>

    <vehicle id="flow_3_phase1_N_right.2" type="moto" depart="93.00" departLane="1" departPos="39.3431" departSpeed="5.1088" speedFactor="1.1043" arrival="129.00">
        <route edges="N_in W_out"/>
    </vehicle>

    <vehicle id="flow_4_phase1_N_uturn.1" type="truck" depart="90.00" departLane="0" departPos="121.5569" departSpeed="11.1871" speedFactor="0.9396" arrival="130.00">
        <route edges="N_in N_out"/>
    </vehicle>

    <vehicle id="flow_1_phase1_N_straight.5" type="moto" depart="92.00" departLane="1" departPos="87.7633" departSpeed="6.1115" speedFactor="0.9020" arrival="132.00">
        <route edges="N_in S_out"/>
    </vehicle>

    <vehicle id="flow_14_phase1_W_left.2" type="car" depart="94.00" departLane="0" departPos="61.3216" departSpeed="5.5706" speedFactor="0.8975" arrival="132.00">
        <route edges="S_in E_out"/>
    </vehicle>

    <vehicle id="flow_6_phase1_S_left.2" type="moto" depart="91.00" departLane="1" departPos="92.2234" departSpeed="0.173" speedFactor="1.0668" arrival="134.00">
        <route edges="S_in W_out"/>
    </vehicle>

    <vehicle id="flow_5_phase1_S_straight.6" type="moto" depart="108.00" departLane="1" departPos="109.8853" departSpeed="2.4062" speedFactor="1.0983" arrival="135.00">
        <route edges="S_in N_out"/>
    </vehicle>

    <vehicle id="flow_2_phase1_N_left.2" type="moto" depart="89.00" departLane="0" departPos="81.6907" departSpeed="9.1867" speedFactor="0.9964" arrival="139.00">
        <route edges="N_in E_out"/>
    </vehicle>

    <vehicle id="flow_9_phase1_E_straight.6" type="moto" depart="105.00" departLane="0" departPos="69.4902" departSpeed="6.3054" speedFactor="1.0203" arrival="140.00">
        <route edges="E_in W_out"/>
    </vehicle>

    <vehicle id="flow_13_phase1_W_straight.6" type="car" depart="109.00" departLane="1" departPos="21.7404" departSpeed="10.7099" speedFactor="0.9759" arrival="141.00">
        <route edges="W_in E_out"/>
    </vehicle>

    <vehicle id="flow_13_phase1_W_straight.7" type="moto" depart="128.00" departLane="0" departPos="178.3578" departSpeed="2.6522" speedFactor="0.8003" arrival="151.00">
        <route edges="W_in E_out"/>
    </vehicle>

    <vehicle id="flow_1_phase1_N_straight.7" type="moto" depart="129.00" departLane="1" departPos="107.805" departSpeed="13.5592" speedFactor="1.0626" arrival="151.00">
        <route edges="N_in S_out"/>
    </vehicle>

    <vehicle id="flow_5_phase1_S_straight.7" type="bus" depart="126.00" departLane="1" departPos="88.3207" departSpeed="10.6904" speedFactor="0.9040" arrival="153.00">
        <route edges="S_in N_out"/>
    </vehicle>

    <vehicle id="flow_1_phase1_N_straight.6" type="car" depart="111.00" departLane="0" departPos="43.1808" departSpeed="3.0773" speedFactor="0.9797" arrival="154.00">
        <route edges="N_in S_out"/>
    </vehicle>

    <vehicle id="flow_6_phase1_S_left.3" type="car" depart="137.00" departLane="1" departPos="140.1205" departSpeed="12.0917" speedFactor="1.0972" arrival="158.00">
        <route edges="S_in W_out"/>
    </vehicle>

    <vehicle id="flow_14_phase1_W_left.3" type="moto" depart="141.00" departLane="0" departPos="171.5609" departSpeed="14.238" speedFactor="1.0873" arrival="159.00">
        <route edges="S_in E_out"/>
    </vehicle>

    <vehicle id="flow_15_phase1_W_right.3" type="moto" depart="134.00" departLane="1" departPos="16.1283" departSpeed="9.4153" speedFactor="1.1705" arrival="162.00">
        <route edges="W_in S_out"/>
    </vehicle>

    <vehicle id="flow_2_phase1_N_left.3" type="moto" depart="134.00" departLane="1" departPos="86.4019" departSpeed="8.22" speedFactor="0.8878" arrival="163.00">
        <route edges="N_in E_out"/>
    </vehicle>

    <vehicle id="flow_9_phase1_E_straight.7" type="moto" depart="123.00" departLane="0" departPos="60.8307" departSpeed="12.8905" speedFactor="1.0085" arrival="166.00">
        <route edges="E_in W_out"/>
    </vehicle>

    <vehicle id="flow_10_phase1_E_left.3" type="truck" depart="137.00" departLane="1" departPos="186.2427" departSpeed="2.8217" speedFactor="1.0651" arrival="169.00">
        <route edges="E_in S_out"/>
    </vehicle>

    <vehicle id="flow_11_phase1_E_right.3" type="moto" depart="133.00" departLane="1" departPos="142.1182" departSpeed="0.401" speedFactor="0.8330" arrival="170.00">
        <route edges="E_in N_out"/>
    </vehicle>

    <vehicle id="flow_9_phase1_E_straight.8" type="moto" depart="140.00" departLane="1" departPos="43.6737" departSpeed="7.5555" speedFactor="0.9385" arrival="171.00">
        <route edges="E_in W_out"/>
    </vehicle>

    <vehicle id="flow_13_phase1_W_straight.8" type="moto" depart="146.00" departLane="0" departPos="50.1096" departSpeed="5.0185" speedFactor="1.0413" arrival="173.00">
        <route edges="W_in E_out"/>
    </vehicle>

    <vehicle id="flow_5_phase1_S_straight.8" type="emergency" depart="144.00" departLane="0" departPos="43.7958" departSpeed="14.4836" speedFactor="1.1380" arrival="177.00">
        <route edges="S_in N_out"/>
    </vehicle>

    <vehicle id="flow_7_phase1_S_right.3" type="moto" depart="133.00" departLane="0" departPos="16.037" departSpeed="5.9885" speedFactor="1.0682" arrival="178.00">
        <route edges="S_in E_out"/>
    </vehicle>

    <vehicle id="flow_3_phase1_N_right.3" type="moto" depart="140.00" departLane="1" departPos="100.1701" departSpeed="1.4661" speedFactor="0.9618" arrival="179.00">
        <route edges="N_in W_out"/>
    </vehicle>

    <vehicle id="flow_1_phase1_N_straight.8" type="moto" depart="147.00" departLane="0" departPos="144.2877" departSpeed="4.0893" speedFactor="0.9730" arrival="180.00">
        <route edges="N_in S_out"/>
    </vehicle>

    <vehicle id="flow_9_phase1_E_straight.9" type="truck" depart="158.00" departLane="1" departPos="177.748" departSpeed="4.3155" speedFactor="1.0019" arrival="196.00">
        <route edges="E_in W_out"/>
    </vehicle>

    <vehicle id="flow_11_phase1_E_right.4" type="container" depart="177.00" departLane="1" departPos="133.5146" departSpeed="6.6675" speedFactor="1.0240" arrival="203.00">
        <route edges="E_in N_out"/>
    </vehicle>

    <vehicle id="flow_5_phase1_S_straight.9" type="moto" depart="162.00" departLane="1" departPos="40.1395" departSpeed="0.2127" speedFactor="1.2976" arrival="205.00">
        <route edges="S_in N_out"/>
    </vehicle>

    <vehicle id="flow_15_phase1_W_right.4" type="bus" depart="179.00" departLane="1" departPos="188.5725" departSpeed="1.0265" speedFactor="0.9032" arrival="205.00">
        <route edges="W_in S_out"/>
    </vehicle>

    <vehicle id="flow_7_phase1_S_right.4" type="moto" depart="177.00" departLane="0" departPos="110.6444" departSpeed="7.302" speedFactor="0.9645" arrival="207.00">
        <route edges="S_in E_out"/>
    </vehicle>

    <vehicle id="flow_1_phase1_N_straight.9" type="truck" depart="166.00" departLane="0" departPos="38.2894" departSpeed="12.3429" speedFactor="0.9670" arrival="209.00">
        <route edges="N_in S_out"/>
    </vehicle>

    <vehicle id="flow_3_phase1_N_right.4" type="moto" depart="186.00" departLane="0" departPos="170.8427" departSpeed="6.8776" speedFactor="1.0387" arrival="209.00">
        <route edges="N_in W_out"/>
    </vehicle>

    <vehicle id="flow_8_phase1_S_uturn.2" type="moto" depart="179.00" departLane="1" departPos="55.6396" departSpeed="12.2131" speedFactor="0.9897" arrival="210.00">
        <route edges="S_in S_out"/>
    </vehicle>

    <vehicle id="flow_5_phase1_S_straight.10" type="moto" depart="180.00" departLane="0" departPos="2.1035" departSpeed="10.5656" speedFactor="1.0281" arrival="210.00">
        <route edges="S_in N_out"/>
    </vehicle>

    <vehicle id="flow_2_phase1_N_left.4" type="moto" depart="178.00" departLane="0" departPos="72.9854" departSpeed="7.664" speedFactor="1.1571" arrival="213.00">
        <route edges="N_in E_out"/>
    </vehicle>

    <vehicle id="flow_6_phase1_S_left.4" type="moto" depart="182.00" departLane="0" departPos="5.0473" departSpeed="11.5237" speedFactor="1.0387" arrival="213.00">
        <route edges="S_in W_out"/>
    </vehicle>

    <vehicle id="flow_12_phase1_E_uturn.2" type="bus" depart="179.00" departLane="1" departPos="60.4969" departSpeed="2.7964" speedFactor="0.9315" arrival="214.00">
        <route edges="N_in W_out"/>
    </vehicle>

    <vehicle id="flow_4_phase1_N_uturn.2" type="car" depart="180.00" departLane="1" departPos="9.1985" departSpeed="9.4057" speedFactor="1.0323" arrival="214.00">
        <route edges="N_in N_out"/>
    </vehicle>

    <vehicle id="flow_9_phase1_E_straight.10" type="moto" depart="175.00" departLane="1" departPos="7.4986" departSpeed="4.4159" speedFactor="1.1157" arrival="217.00">
        <route edges="E_in W_out"/>
    </vehicle>

    <vehicle id="flow_13_phase1_W_straight.9" type="moto" depart="164.00" departLane="1" departPos="5.9793" departSpeed="0.5712" speedFactor="0.8391" arrival="221.00">
        <route edges="W_in E_out"/>
    </vehicle>

    <vehicle id="flow_13_phase1_W_straight.10" type="moto" depart="182.00" departLane="1" departPos="159.8742" departSpeed="8.4052" speedFactor="1.1421" arrival="223.00">
        <route edges="W_in E_out"/>
    </vehicle>

    <vehicle id="flow_10_phase1_E_left.4" type="moto" depart="182.00" departLane="1" departPos="75.2144" departSpeed="6.5373" speedFactor="1.0039" arrival="224.00">
        <route edges="E_in S_out"/>
    </vehicle>

    <vehicle id="flow_16_phase1_W_uturn.2" type="car" depart="180.00" departLane="1" departPos="146.8151" departSpeed="11.3045" speedFactor="0.8850" arrival="225.00">
        <route edges="W_in W_out"/>
    </vehicle>

    <vehicle id="flow_9_phase1_E_straight.11" type="moto" depart="193.00" departLane="1" departPos="149.7816" departSpeed="13.1797" speedFactor="1.0448" arrival="225.00">
        <route edges="E_in W_out"/>
    </vehicle>

    <vehicle id="flow_13_phase1_W_straight.11" type="moto" depart="200.00" departLane="0" departPos="60.9644" departSpeed="12.5541" speedFactor="1.0140" arrival="226.00">
        <route edges="W_in E_out"/>
    </vehicle>

    <vehicle id="flow_5_phase1_S_straight.11" type="bus" depart="198.00" departLane="1" departPos="81.1005" departSpeed="0.2232" speedFactor="0.9784" arrival="230.00">
        <route edges="S_in N_out"/>
    </vehicle>

    <vehicle id="flow_1_phase1_N_straight.11" type="truck" depart="202.00" departLane="1" departPos="66.1547" departSpeed="10.8254" speedFactor="0.9137" arrival="231.00">
        <route edges="N_in S_out"/>
    </vehicle>

    <vehicle id="flow_1_phase1_N_straight.10" type="bus" depart="184.00" departLane="0" departPos="45.6162" departSpeed="11.7298" speedFactor="1.0325" arrival="235.00">
        <route edges="N_in S_out"/>
    </vehicle>

    <vehicle id="flow_14_phase1_W_left.4" type="bus" depart="188.00" departLane="0" departPos="62.1003" departSpeed="7.8982" speedFactor="0.8196" arrival="236.00">
        <route edges="S_in E_out"/>
    </vehicle>

    <vehicle id="flow_1_phase1_N_straight.12" type="truck" depart="221.00" departLane="0" departPos="169.1917" departSpeed="9.4173" speedFactor="0.9615" arrival="240.00">
        <route edges="N_in S_out"/>
    </vehicle>

    <vehicle id="flow_13_phase1_W_straight.12" type="moto" depart="218.00" departLane="1" departPos="102.4537" departSpeed="0.6809" speedFactor="1.1365" arrival="241.00">
        <route edges="W_in E_out"/>
    </vehicle>

    <vehicle id="flow_11_phase1_E_right.5" type="moto" depart="221.00" departLane="0" departPos="128.7404" departSpeed="4.1812" speedFactor="1.2552" arrival="243.00">
        <route edges="E_in N_out"/>
    </vehicle>

    <vehicle id="flow_9_phase1_E_straight.12" type="moto" depart="210.00" departLane="1" departPos="162.1669" departSpeed="13.608" speedFactor="1.0047" arrival="245.00">
        <route edges="E_in W_out"/>
    </vehicle>

    <vehicle id="flow_9_phase1_E_straight.13" type="moto" depart="228.00" departLane="0" departPos="170.7684" departSpeed="5.4556" speedFactor="0.9282" arrival="248.00">
        <route edges="E_in W_out"/>
    </vehicle>

    <vehicle id="flow_10_phase1_E_left.5" type="moto" depart="228.00" departLane="1" departPos="167.1176" departSpeed="0.9094" speedFactor="1.0856" arrival="250.00">
        <route edges="E_in S_out"/>
    </vehicle>

    <vehicle id="flow_5_phase1_S_straight.12" type="moto" depart="216.00" departLane="1" departPos="11.9624" departSpeed="0.8453" speedFactor="1.0699" arrival="257.00">
        <route edges="S_in N_out"/>
    </vehicle>

    <vehicle id="flow_7_phase1_S_right.5" type="truck" depart="221.00" departLane="1" departPos="170.5857" departSpeed="9.2533" speedFactor="1.0532" arrival="261.00">
        <route edges="S_in E_out"/>
    </vehicle>

    <vehicle id="flow_3_phase1_N_right.5" type="moto" depart="232.00" departLane="0" departPos="98.6919" departSpeed="1.5056" speedFactor="0.9059" arrival="261.00">
        <route edges="N_in W_out"/>
    </vehicle>

    <vehicle id="flow_5_phase1_S_straight.13" type="moto" depart="234.00" departLane="1" departPos="50.8725" departSpeed="6.499" speedFactor="1.2148" arrival="262.00">
        <route edges="S_in N_out"/>
    </vehicle>

    <vehicle id="flow_1_phase1_N_straight.13" type="truck" depart="239.00" departLane="1" departPos="120.4896" departSpeed="13.029" speedFactor="0.9465" arrival="268.00">
        <route edges="N_in S_out"/>
    </vehicle>

    <vehicle id="flow_2_phase1_N_left.5" type="car" depart="222.00" departLane="0" departPos="28.3376" departSpeed="10.0561" speedFactor="0.8868" arrival="270.00">
        <route edges="N_in E_out"/>
    </vehicle>

    <vehicle id="flow_15_phase1_W_right.5" type="car" depart="223.00" departLane="1" departPos="21.3277" departSpeed="6.8775" speedFactor="0.9653" arrival="270.00">
        <route edges="W_in S_out"/>
    </vehicle>

    <vehicle id="flow_6_phase1_S_left.5" type="bus" depart="227.00" departLane="1" departPos="38.4375" departSpeed="1.1216" speedFactor="0.9819" arrival="275.00">
        <route edges="S_in W_out"/>
    </vehicle>

    <vehicle id="flow_13_phase1_W_straight.13" type="moto" depart="237.00" departLane="0" departPos="114.397" departSpeed="12.033" speedFactor="0.8917" arrival="278.00">
        <route edges="W_in E_out"/>
    </vehicle>

    <vehicle id="flow_5_phase1_S_straight.14" type="car" depart="252.00" departLane="1" departPos="138.898" departSpeed="9.7451" speedFactor="0.8047" arrival="286.00">
        <route edges="S_in N_out"/>
    </vehicle>

    <vehicle id="flow_14_phase1_W_left.5" type="bus" depart="234.00" departLane="1" departPos="43.1771" departSpeed="3.1487" speedFactor="0.9554" arrival="287.00">
        <route edges="S_in E_out"/>
    </vehicle>

    <vehicle id="flow_7_phase1_S_right.6" type="car" depart="265.00" departLane="0" departPos="122.1483" departSpeed="0.822" speedFactor="1.1275" arrival="289.00">
        <route edges="S_in E_out"/>
    </vehicle>

    <vehicle id="flow_1_phase1_N_straight.14" type="car" depart="257.00" departLane="1" departPos="22.618" departSpeed="0.1933" speedFactor="0.9718" arrival="290.00">
        <route edges="N_in S_out"/>
    </vehicle>

    <vehicle id="flow_2_phase1_N_left.6" type="moto" depart="267.00" departLane="0" departPos="154.1317" departSpeed="9.2195" speedFactor="0.8416" arrival="292.00">
        <route edges="N_in E_out"/>
    </vehicle>

    <vehicle id="flow_4_phase1_N_uturn.3" type="car" depart="269.00" departLane="0" departPos="188.0912" departSpeed="1.5078" speedFactor="0.9559" arrival="293.00">
        <route edges="N_in N_out"/>
    </vehicle>

    <vehicle id="flow_13_phase1_W_straight.14" type="moto" depart="255.00" departLane="0" departPos="27.7577" departSpeed="13.5225" speedFactor="1.1523" arrival="295.00">
        <route edges="W_in E_out"/>
    </vehicle>

    <vehicle id="flow_15_phase1_W_right.6" type="moto" depart="268.00" departLane="1" departPos="28.4645" departSpeed="8.1308" speedFactor="1.0747" arrival="297.00">
        <route edges="W_in S_out"/>
    </vehicle>

    <vehicle id="flow_13_phase1_W_straight.15" type="car" depart="273.00" departLane="0" departPos="79.4706" departSpeed="9.5274" speedFactor="1.0262" arrival="297.00">
        <route edges="W_in E_out"/>
    </vehicle>

    <vehicle id="flow_11_phase1_E_right.6" type="car" depart="265.00" departLane="0" departPos="100.2317" departSpeed="10.2659" speedFactor="0.9838" arrival="298.00">
        <route edges="E_in N_out"/>
    </vehicle>

    <vehicle id="flow_9_phase1_E_straight.14" type="moto" depart="245.00" departLane="1" departPos="0.9771" departSpeed="7.3151" speedFactor="0.8543" arrival="299.00">
        <route edges="E_in W_out"/>
    </vehicle>

    <vehicle id="flow_9_phase1_E_straight.15" type="bus" depart="263.00" departLane="0" departPos="7.5649" departSpeed="9.949" speedFactor="0.8815" arrival="304.00">
        <route edges="E_in W_out"/>
    </vehicle>

    <vehicle id="flow_10_phase1_E_left.6" type="bus" depart="273.00" departLane="1" departPos="175.2569" departSpeed="4.2835" speedFactor="0.9234" arrival="308.00">
        <route edges="E_in S_out"/>
    </vehicle>

    <vehicle id="flow_16_phase1_W_uturn.3" type="bus" depart="270.00" departLane="0" departPos="55.9807" departSpeed="0.8646" speedFactor="0.9363" arrival="309.00">
        <route edges="W_in W_out"/>
    </vehicle>

    <vehicle id="flow_12_phase1_E_uturn.3" type="car" depart="268.00" departLane="0" departPos="98.4033" departSpeed="5.3247" speedFactor="0.8963" arrival="310.00">
        <route edges="N_in W_out"/>
    </vehicle>

    <vehicle id="flow_1_phase1_N_straight.15" type="car" depart="276.00" departLane="0" departPos="15.5939" departSpeed="7.272" speedFactor="0.9311" arrival="310.00">
        <route edges="N_in S_out"/>
    </vehicle>

    <vehicle id="flow_1_phase1_N_straight.16" type="moto" depart="294.00" departLane="1" departPos="164.6966" departSpeed="13.0099" speedFactor="1.0821" arrival="312.00">