<?xml version="1.0" encoding="UTF-8"?>

<!-- generated on 2025-12-09 22:51:18 by Eclipse SUMO sumo Version 1.18.0
<configuration xmlns:xsi="http://www.w3.org/2001/XMLSchema-instance" xsi:noNamespaceSchemaLocation="http://sumo.dlr.de/xsd/sumoConfiguration.xsd">

    <input>
        <net-file value="/workspace/nets/60p2k/net.net.xml"/>
        <route-files value="/workspace/nets/60p2k/route_temp_612_137971484654080_15553294.rou.xml"/>
    </input>

    <output>
        <summary-output value="results/summary_ep_2.xml"/>
        <tripinfo-output value="results/tripinfo_ep_2.xml"/>
        <vehroute-output value="results/vehroute_ep_2.xml"/>
    </output>

    <time>
        <begin value="0"/>
    </time>

    <report>
        <verbose value="true"/>
        <no-step-log value="true"/>
    </report>

    <traci_server>
        <remote-port value="53789"/>
    </traci_server>

    <gui_only>
        <gui-settings-file value="/workspace/nets/60p2k/gui-settings.xml"/>
        <quit-on-end value="true"/>
    </gui_only>

</configuration>
-->

<routes xmlns:xsi="http://www.w3.org/2001/XMLSchema-instance" xsi:noNamespaceSchemaLocation="http://sumo.dlr.de/xsd/routes_file.xsd">
    <vehicle id="flow_12_phase1_E_uturn.0" type="moto" depart="0.00" departLane="0" departPos="129.8894" departSpeed="13.7593" speedFactor="1.0348" arrival="20.00">
        <route edges="S_in N_out"/>
    </vehicle>

    <vehicle id="flow_3_phase1_N_right.0" type="car" depart="0.00" departLane="0" departPos="103.3842" departSpeed="3.7523" speedFactor="1.0907" arrival="24.00">
        <route edges="N_in W_out"/>
    </vehicle>

    <vehicle id="flow_8_phase1_S_uturn.0" type="moto" depart="0.00" departLane="0" departPos="120.1072" departSpeed="4.4837" speedFactor="1.0505" arrival="24.00">
        <route edges="S_in S_out"/>
    </vehicle>

    <vehicle id="flow_5_phase1_S_straight.0" type="moto" depart="0.00" departLane="1" departPos="107.3659" departSpeed="7.2113" speedFactor="1.1475" arrival="25.00">
        <route edges="S_in N_out"/>
    </vehicle>

    <vehicle id="flow_6_phase1_S_left.0" type="moto" depart="0.00" departLane="1" departPos="166.0107" departSpeed="0.7376" speedFactor="0.8806" arrival="25.00">
        <route edges="S_in W_out"/>
    </vehicle>

    <vehicle id="flow_4_phase1_N_uturn.0" type="car" depart="0.00" departLane="1" departPos="127.6015" departSpeed="0.0774" speedFactor="0.9228" arrival="32.00">
        <route edges="N_in N_out"/>
    </vehicle>

    <vehicle id="flow_16_phase1_W_uturn.0" type="moto" depart="0.00" departLane="0" departPos="135.6701" departSpeed="9.6426" speedFactor="1.0383" arrival="37.00">
        <route edges="W_in W_out"/>
    </vehicle>

    <vehicle id="flow_15_phase1_W_right.0" type="moto" depart="0.00" departLane="1" departPos="153.8984" departSpeed="6.7313" speedFactor="0.8472" arrival="39.00">
        <route edges="W_in S_out"/>
    </vehicle>

    <vehicle id="flow_9_phase1_E_straight.0" type="truck" depart="0.00" departLane="0" departPos="168.2937" departSpeed="9.8263" speedFactor="0.8990" arrival="41.00">
        <route edges="E_in W_out"/>
    </vehicle>

    <vehicle id="flow_11_phase1_E_right.0" type="bus" depart="0.00" departLane="1" departPos="144.9496" departSpeed="4.0187" speedFactor="0.9581" arrival="42.00">
        <route edges="E_in N_out"/>
    </vehicle>

    <vehicle id="flow_13_phase1_W_straight.0" type="container" depart="0.00" departLane="0" departPos="77.991" departSpeed="1.4795" speedFactor="0.8227" arrival="46.00">
        <route edges="W_in E_out"/>
    </vehicle>

    <vehicle id="flow_9_phase1_E_straight.1" type="moto" depart="18.00" departLane="0" departPos="93.3916" departSpeed="3.7336" speedFactor="0.8727" arrival="46.00">
        <route edges="E_in W_out"/>
    </vehicle>

    <vehicle id="flow_14_phase1_W_left.0" type="moto" depart="0.00" departLane="1" departPos="42.3057" departSpeed="3.7077" speedFactor="1.0101" arrival="47.00">
        <route edges="W_in N_out"/>
    </vehicle>

    <vehicle id="flow_10_phase1_E_left.0" type="truck" depart="0.00" departLane="0" departPos="44.8816" departSpeed="7.6878" speedFactor="1.0161" arrival="50.00">
        <route edges="E_in S_out"/>
    </vehicle>

    <vehicle id="flow_5_phase1_S_straight.1" type="moto" depart="18.00" departLane="1" departPos="177.286" departSpeed="8.4065" speedFactor="1.1582" arrival="50.00">
        <route edges="S_in N_out"/>
    </vehicle>

    <vehicle id="flow_5_phase1_S_straight.2" type="moto" depart="36.00" departLane="1" departPos="188.1343" departSpeed="2.394" speedFactor="0.9623" arrival="55.00">
        <route edges="S_in N_out"/>
    </vehicle>

    <vehicle id="flow_7_phase1_S_right.0" type="container" depart="0.00" departLane="0" departPos="8.759" departSpeed="8.0654" speedFactor="0.8488" arrival="57.00">
        <route edges="S_in E_out"/>
    </vehicle>

    <vehicle id="flow_2_phase1_N_left.0" type="moto" depart="0.00" departLane="1" departPos="8.2688" departSpeed="8.3291" speedFactor="1.0157" arrival="58.00">
        <route edges="N_in E_out"/>
    </vehicle>

    <vehicle id="flow_13_phase1_W_straight.1" type="car" depart="19.00" departLane="0" departPos="5.2781" departSpeed="2.3675" speedFactor="1.1218" arrival="71.00">
        <route edges="W_in E_out"/>
    </vehicle>

    <vehicle id="flow_9_phase1_E_straight.2" type="moto" depart="35.00" departLane="1" departPos="175.9691" departSpeed="7.553" speedFactor="0.9938" arrival="72.00">
        <route edges="E_in W_out"/>
    </vehicle>

    <vehicle id="flow_15_phase1_W_right.1" type="moto" depart="45.00" departLane="0" departPos="156.5209" departSpeed="7.6899" speedFactor="1.0788" arrival="72.00">
        <route edges="W_in S_out"/>
    </vehicle>

    <vehicle id="flow_11_phase1_E_right.1" type="moto" depart="45.00" departLane="1" departPos="116.6259" departSpeed="6.0975" speedFactor="1.0365" arrival="73.00">
        <route edges="E_in N_out"/>
    </vehicle>

    <vehicle id="flow_9_phase1_E_straight.3" type="bus" depart="53.00" departLane="1" departPos="165.6783" departSpeed="5.3945" speedFactor="0.8515" arrival="76.00">
        <route edges="E_in W_out"/>
    </vehicle>

    <vehicle id="flow_13_phase1_W_straight.2" type="moto" depart="37.00" departLane="0" departPos="34.2537" departSpeed="2.672" speedFactor="0.9279" arrival="77.00">
        <route edges="W_in E_out"/>
    </vehicle>

    <vehicle id="flow_13_phase1_W_straight.3" type="moto" depart="55.00" departLane="0" departPos="132.6219" departSpeed="5.486" speedFactor="1.2027" arrival="78.00">
        <route edges="W_in E_out"/>
    </vehicle>

    <vehicle id="flow_6_phase1_S_left.1" type="moto" depart="46.00" departLane="0" departPos="69.2372" departSpeed="6.0614" speedFactor="1.0453" arrival="84.00">
        <route edges="S_in W_out"/>
    </vehicle>

    <vehicle id="flow_1_phase1_N_straight.0" type="bus" depart="0.00" departLane="0" departPos="8.6229" departSpeed="8.5053" speedFactor="0.8588" arrival="85.00">
        <route edges="W_in N_out"/>
    </vehicle>

    <vehicle id="flow_10_phase1_E_left.1" type="truck" depart="46.00" departLane="1" departPos="57.3992" departSpeed="0.2541" speedFactor="0.7665" arrival="86.00">
        <route edges="E_in S_out"/>
    </vehicle>

    <vehicle id="flow_3_phase1_N_right.1" type="moto" depart="47.00" departLane="1" departPos="118.5435" departSpeed="10.7169" speedFactor="0.8806" arrival="87.00">
        <route edges="N_in W_out"/>
    </vehicle>

    <vehicle id="flow_5_phase1_S_straight.3" type="moto" depart="54.00" departLane="0" departPos="56.1823" departSpeed="12.422" speedFactor="1.0764" arrival="87.00">
        <route edges="S_in N_out"/>
    </vehicle>

    <vehicle id="flow_2_phase1_N_left.1" type="moto" depart="45.00" departLane="0" departPos="136.8677" departSpeed="1.2485" speedFactor="1.1228" arrival="88.00">
        <route edges="N_in E_out"/>
    </vehicle>

    <vehicle id="flow_7_phase1_S_right.1" type="container" depart="45.00" departLane="1" departPos="40.2647" departSpeed="3.1627" speedFactor="0.7845" arrival="95.00">
        <route edges="S_in E_out"/>
    </vehicle>

    <vehicle id="flow_1_phase1_N_straight.1" type="moto" depart="19.00" departLane="1" departPos="34.7646" departSpeed="2.6944" speedFactor="1.1853" arrival="101.00">
        <route edges="W_in N_out"/>
    </vehicle>

    <vehicle id="flow_9_phase1_E_straight.4" type="bus" depart="70.00" departLane="1" departPos="135.0364" departSpeed="3.7231" speedFactor="0.9525" arrival="101.00">
        <route edges="E_in W_out"/>
    </vehicle>

    <vehicle id="flow_13_phase1_W_straight.4" type="bus" depart="73.00" departLane="0" departPos="91.0122" departSpeed="4.4892" speedFactor="0.8691" arrival="103.00">
        <route edges="W_in E_out"/>
    </vehicle>

    <vehicle id="flow_1_phase1_N_straight.2" type="bus" depart="37.00" departLane="0" departPos="16.309" departSpeed="4.5507" speedFactor="0.9657" arrival="109.00">
        <route edges="W_in N_out"/>
    </vehicle>

    <vehicle id="flow_11_phase1_E_right.2" type="emergency" depart="89.00" departLane="1" departPos="112.3734" departSpeed="10.3998" speedFactor="1.0989" arrival="111.00">
        <route edges="E_in N_out"/>
    </vehicle>

    <vehicle id="flow_15_phase1_W_right.2" type="moto" depart="90.00" departLane="1" departPos="89.1662" departSpeed="11.3855" speedFactor="1.0265" arrival="115.00">
        <route edges="W_in S_out"/>
    </vehicle>

    <vehicle id="flow_9_phase1_E_straight.5" type="moto" depart="88.00" departLane="1" departPos="29.1154" departSpeed="12.0849" speedFactor="1.0283" arrival="116.00">
        <route edges="E_in W_out"/>
    </vehicle>

    <vehicle id="flow_3_phase1_N_right.2" type="moto" depart="93.00" departLane="1" departPos="84.6621" departSpeed="2.3538" speedFactor="1.1043" arrival="119.00">
        <route edges="N_in W_out"/>
    </vehicle>

    <vehicle id="flow_8_phase1_S_uturn.1" type="moto" depart="90.00" departLane="1" departPos="168.2148" departSpeed="11.6281" speedFactor="0.8882" arrival="123.00">
        <route edges="S_in S_out"/>
    </vehicle>

    <vehicle id="flow_7_phase1_S_right.2" type="moto" depart="89.00" departLane="0" departPos="52.573" departSpeed="9.361" speedFactor="1.1432" arrival="126.00">
        <route edges="S_in E_out"/>
    </vehicle>

    <vehicle id="flow_5_phase1_S_straight.4" type="container" depart="72.00" departLane="0" departPos="26.7631" departSpeed="9.623" speedFactor="0.9706" arrival="128.00">
        <route edges="S_in N_out"/>
    </vehicle>

    <vehicle id="flow_6_phase1_S_left.2" type="moto" depart="91.00" departLane="1" departPos="92.2234" departSpeed="0.173" speedFactor="1.0668" arrival="128.00">
        <route edges="S_in W_out"/>
    </vehicle>

    <vehicle id="flow_14_phase1_W_left.1" type="container" depart="47.00" departLane="1" departPos="80.5996" departSpeed="6.2634" speedFactor="0.9146" arrival="130.00">
        <route edges="W_in N_out"/>
    </vehicle>

    <vehicle id="flow_5_phase1_S_straight.5" type="moto" depart="90.00" departLane="0" departPos="104.1356" departSpeed="10.862" speedFactor="0.9517" arrival="132.00">
        <route edges="S_in N_out"/>
    </vehicle>

    <vehicle id="flow_12_phase1_E_uturn.1" type="moto" depart="90.00" departLane="0" departPos="31.7588" departSpeed="11.7707" speedFactor="0.9374" arrival="133.00">
        <route edges="S_in N_out"/>
    </vehicle>

    <vehicle id="flow_5_phase1_S_straight.6" type="moto" depart="108.00" departLane="1" departPos="21.7404" departSpeed="12.0531" speedFactor="1.0983" arrival="135.00">
        <route edges="S_in N_out"/>
    </vehicle>

    <vehicle id="flow_4_phase1_N_uturn.1" type="truck" depart="90.00" departLane="1" departPos="162.4039" departSpeed="1.3436" speedFactor="0.9396" arrival="143.00">
        <route edges="N_in N_out"/>
    </vehicle>

    <vehicle id="flow_13_phase1_W_straight.5" type="moto" depart="91.00" departLane="1" departPos="74.602" departSpeed="11.8331" speedFactor="1.0390" arrival="144.00">
        <route edges="W_in E_out"/>
    </vehicle>

    <vehicle id="flow_9_phase1_E_straight.6" type="moto" depart="105.00" departLane="1" departPos="109.8853" departSpeed="2.2353" speedFactor="1.0203" arrival="144.00">
        <route edges="E_in W_out"/>
    </vehicle>

    <vehicle id="flow_1_phase1_N_straight.3" type="car" depart="56.00" departLane="0" departPos="125.4807" departSpeed="6.7924" speedFactor="1.0479" arrival="147.00">
        <route edges="W_in N_out"/>
    </vehicle>

    <vehicle id="flow_13_phase1_W_straight.6" type="car" depart="109.00" departLane="0" departPos="43.1808" departSpeed="3.0654" speedFactor="0.9759" arrival="147.00">
        <route edges="W_in E_out"/>
    </vehicle>

    <vehicle id="flow_10_phase1_E_left.2" type="moto" depart="91.00" departLane="1" departPos="21.6793" departSpeed="6.5338" speedFactor="1.1413" arrival="148.00">
        <route edges="E_in S_out"/>
    </vehicle>

    <vehicle id="flow_9_phase1_E_straight.7" type="moto" depart="123.00" departLane="0" departPos="36.1232" departSpeed="6.53" speedFactor="1.0085" arrival="151.00">
        <route edges="E_in W_out"/>
    </vehicle>

    <vehicle id="flow_5_phase1_S_straight.7" type="bus" depart="126.00" departLane="1" departPos="41.8299" departSpeed="11.8205" speedFactor="0.9040" arrival="159.00">
        <route edges="S_in N_out"/>
    </vehicle>

    <vehicle id="flow_3_phase1_N_right.3" type="moto" depart="140.00" departLane="0" departPos="178.6166" departSpeed="7.2954" speedFactor="0.9618" arrival="160.00">
        <route edges="N_in W_out"/>
    </vehicle>

    <vehicle id="flow_1_phase1_N_straight.4" type="truck" depart="74.00" departLane="0" departPos="128.0429" departSpeed="4.9925" speedFactor="0.9194" arrival="162.00">
        <route edges="W_in N_out"/>
    </vehicle>

    <vehicle id="flow_7_phase1_S_right.3" type="moto" depart="133.00" departLane="1" departPos="22.6438" departSpeed="11.0035" speedFactor="1.0682" arrival="162.00">
        <route edges="S_in E_out"/>
    </vehicle>

    <vehicle id="flow_5_phase1_S_straight.8" type="emergency" depart="144.00" departLane="0" departPos="144.2877" departSpeed="4.7827" speedFactor="1.1380" arrival="162.00">
        <route edges="S_in N_out"/>
    </vehicle>

    <vehicle id="flow_2_phase1_N_left.2" type="moto" depart="89.00" departLane="0" departPos="125.7621" departSpeed="4.7721" speedFactor="0.9964" arrival="163.00">
        <route edges="N_in E_out"/>
    </vehicle>

    <vehicle id="flow_15_phase1_W_right.3" type="moto" depart="134.00" departLane="0" departPos="36.1365" departSpeed="9.6727" speedFactor="1.1705" arrival="169.00">
        <route edges="W_in S_out"/>
    </vehicle>

    <vehicle id="flow_2_phase1_N_left.3" type="moto" depart="134.00" departLane="0" departPos="150.3232" departSpeed="5.3098" speedFactor="0.8878" arrival="171.00">
        <route edges="N_in E_out"/>
    </vehicle>

    <vehicle id="flow_11_phase1_E_right.3" type="moto" depart="133.00" departLane="1" departPos="111.5719" departSpeed="0.0849" speedFactor="0.8330" arrival="172.00">
        <route edges="E_in N_out"/>
    </vehicle>

    <vehicle id="flow_9_phase1_E_straight.8" type="moto" depart="140.00" departLane="0" departPos="43.7958" departSpeed="2.895" speedFactor="0.9385" arrival="172.00">
        <route edges="E_in W_out"/>
    </vehicle>

    <vehicle id="flow_13_phase1_W_straight.7" type="moto" depart="128.00" departLane="1" departPos="76.4696" departSpeed="6.3251" speedFactor="0.8003" arrival="174.00">
        <route edges="W_in E_out"/>
    </vehicle>

    <vehicle id="flow_13_phase1_W_straight.8" type="moto" depart="146.00" departLane="1" departPos="69.3051" departSpeed="4.4852" speedFactor="1.0413" arrival="175.00">
        <route edges="W_in E_out"/>
    </vehicle>

    <vehicle id="flow_16_phase1_W_uturn.1" type="truck" depart="90.00" departLane="1" departPos="124.8757" departSpeed="0.0106" speedFactor="0.8923" arrival="178.00">
        <route edges="W_in W_out"/>
    </vehicle>

    <vehicle id="flow_1_phase1_N_straight.5" type="moto" depart="92.00" departLane="1" departPos="63.1043" departSpeed="6.1115" speedFactor="0.9020" arrival="179.00">
        <route edges="W_in N_out"/>
    </vehicle>

    <vehicle id="flow_10_phase1_E_left.3" type="truck" depart="137.00" departLane="1" departPos="109.812" departSpeed="0.1725" speedFactor="1.0651" arrival="182.00">
        <route edges="E_in S_out"/>
    </vehicle>

    <vehicle id="flow_6_phase1_S_left.3" type="car" depart="137.00" departLane="1" departPos="20.793" departSpeed="6.0156" speedFactor="1.0972" arrival="184.00">
        <route edges="S_in W_out"/>
    </vehicle>

    <vehicle id="flow_5_phase1_S_straight.9" type="moto" depart="162.00" departLane="0" departPos="65.0172" departSpeed="3.2312" speedFactor="1.2976" arrival="187.00">
        <route edges="S_in N_out"/>
    </vehicle>

    <vehicle id="flow_7_phase1_S_right.4" type="moto" depart="177.00" departLane="1" departPos="168.3233" departSpeed="4.5767" speedFactor="0.9645" arrival="198.00">
        <route edges="S_in E_out"/>
    </vehicle>

    <vehicle id="flow_9_phase1_E_straight.10" type="moto" depart="175.00" departLane="0" departPos="90.8186" departSpeed="10.9208" speedFactor="1.1157" arrival="205.00">
        <route edges="E_in W_out"/>
    </vehicle>

    <vehicle id="flow_13_phase1_W_straight.9" type="moto" depart="164.00" departLane="1" departPos="150.7313" departSpeed="0.4613" speedFactor="0.8391" arrival="209.00">
        <route edges="W_in E_out"/>
    </vehicle>

    <vehicle id="flow_9_phase1_E_straight.9" type="truck" depart="158.00" departLane="1" departPos="5.9732" departSpeed="0.4392" speedFactor="1.0019" arrival="210.00">
        <route edges="E_in W_out"/>
    </vehicle>

    <vehicle id="flow_13_phase1_W_straight.10" type="moto" depart="182.00" departLane="0" departPos="184.7562" departSpeed="0.9417" speedFactor="1.1421" arrival="210.00">
        <route edges="W_in E_out"/>
    </vehicle>

    <vehicle id="flow_9_phase1_E_straight.11" type="moto" depart="193.00" departLane="1" departPos="162.1669" departSpeed="14.3602" speedFactor="1.0448" arrival="211.00">
        <route edges="E_in W_out"/>
    </vehicle>

    <vehicle id="flow_10_phase1_E_left.4" type="moto" depart="182.00" departLane="0" departPos="131.4461" departSpeed="12.5737" speedFactor="1.0039" arrival="212.00">
        <route edges="E_in S_out"/>
    </vehicle>

    <vehicle id="flow_15_phase1_W_right.4" type="bus" depart="179.00" departLane="1" departPos="146.8151" departSpeed="5.5376" speedFactor="0.9032" arrival="214.00">
        <route edges="W_in S_out"/>
    </vehicle>

    <vehicle id="flow_11_phase1_E_right.4" type="container" depart="177.00" departLane="1" departPos="40.9491" departSpeed="2.1501" speedFactor="1.0240" arrival="215.00">
        <route edges="E_in N_out"/>
    </vehicle>

    <vehicle id="flow_14_phase1_W_left.2" type="car" depart="94.00" departLane="1" departPos="69.4902" departSpeed="8.7425" speedFactor="0.8975" arrival="218.00">
        <route edges="W_in N_out"/>
    </vehicle>

    <vehicle id="flow_3_phase1_N_right.4" type="moto" depart="186.00" departLane="1" departPos="60.9644" departSpeed="6.1758" speedFactor="1.0387" arrival="218.00">
        <route edges="N_in W_out"/>
    </vehicle>

    <vehicle id="flow_8_phase1_S_uturn.2" type="moto" depart="179.00" departLane="0" departPos="124.2821" departSpeed="12.2932" speedFactor="0.9897" arrival="219.00">
        <route edges="S_in S_out"/>
    </vehicle>

    <vehicle id="flow_5_phase1_S_straight.10" type="moto" depart="180.00" departLane="1" departPos="75.2144" departSpeed="6.6948" speedFactor="1.0281" arrival="219.00">
        <route edges="S_in N_out"/>
    </vehicle>

    <vehicle id="flow_6_phase1_S_left.4" type="moto" depart="182.00" departLane="1" departPos="77.131" departSpeed="3.4736" speedFactor="1.0387" arrival="220.00">
        <route edges="S_in W_out"/>
    </vehicle>

    <vehicle id="flow_12_phase1_E_uturn.2" type="bus" depart="179.00" departLane="0" departPos="2.1035" departSpeed="11.8709" speedFactor="0.9315" arrival="225.00">
        <route edges="S_in N_out"/>
    </vehicle>

    <vehicle id="flow_2_phase1_N_left.4" type="moto" depart="178.00" departLane="0" departPos="45.7887" departSpeed="10.4493" speedFactor="1.1571" arrival="227.00">
        <route edges="N_in E_out"/>
    </vehicle>

    <vehicle id="flow_4_phase1_N_uturn.2" type="car" depart="180.00" departLane="0" departPos="5.0473" departSpeed="11.4527" speedFactor="1.0323" arrival="229.00">
        <route edges="N_in N_out"/>
    </vehicle>

    <vehicle id="flow_5_phase1_S_straight.11" type="bus" depart="198.00" departLane="1" departPos="11.9624" departSpeed="0.773" speedFactor="0.9784" arrival="234.00">
        <route edges="S_in N_out"/>
    </vehicle>

    <vehicle id="flow_9_phase1_E_straight.12" type="moto" depart="210.00" departLane="1" departPos="113.0073" departSpeed="12.5648" speedFactor="1.0047" arrival="243.00">
        <route edges="E_in W_out"/>
    </vehicle>

    <vehicle id="flow_1_phase1_N_straight.6" type="car" depart="111.00" departLane="0" departPos="47.4954" departSpeed="3.5737" speedFactor="0.9797" arrival="246.00">
        <route edges="W_in N_out"/>
    </vehicle>

    <vehicle id="flow_1_phase1_N_straight.7" type="moto" depart="129.00" departLane="0" departPos="6.5659" departSpeed="8.4128" speedFactor="1.0626" arrival="247.00">
        <route edges="W_in N_out"/>
    </vehicle>

    <vehicle id="flow_11_phase1_E_right.5" type="moto" depart="221.00" departLane="0" departPos="11.4261" departSpeed="15.5933" speedFactor="1.2552" arrival="248.00">
        <route edges="E_in N_out"/>
    </vehicle>

    <vehicle id="flow_10_phase1_E_left.5" type="moto" depart="228.00" departLane="1" departPos="120.4896" departSpeed="14.9438" speedFactor="1.0856" arrival="250.00">
        <route edges="E_in S_out"/>
    </vehicle>

    <vehicle id="flow_14_phase1_W_left.3" type="moto" depart="141.00" departLane="0" departPos="50.1096" departSpeed="5.2402" speedFactor="1.0873" arrival="251.00">
        <route edges="W_in N_out"/>
    </vehicle>

    <vehicle id="flow_1_phase1_N_straight.8" type="moto" depart="147.00" departLane="1" departPos="109.1161" departSpeed="2.8633" speedFactor="0.9730" arrival="253.00">
        <route edges="W_in N_out"/>
    </vehicle>

    <vehicle id="flow_5_phase1_S_straight.12" type="moto" depart="216.00" departLane="0" departPos="72.1694" departSpeed="10.098" speedFactor="1.0699" arrival="254.00">
        <route edges="S_in N_out"/>
    </vehicle>

    <vehicle id="flow_5_phase1_S_straight.13" type="moto" depart="234.00" departLane="1" departPos="138.898" departSpeed="13.9398" speedFactor="1.2148" arrival="255.00">
        <route edges="S_in N_out"/>
    </vehicle>

    <vehicle id="flow_7_phase1_S_right.5" type="truck" depart="221.00" departLane="0" departPos="80.1718" departSpeed="2.9679" speedFactor="1.0532" arrival="259.00">
        <route edges="S_in E_out"/>
    </vehicle>

    <vehicle id="flow_2_phase1_N_left.5" type="car" depart="222.00" departLane="0" departPos="22.6696" departSpeed="6.5398" speedFactor="0.8868" arrival="260.00">
        <route edges="N_in E_out"/>
    </vehicle>

    <vehicle id="flow_6_phase1_S_left.5" type="bus" depart="227.00" departLane="1" departPos="43.1771" departSpeed="3.236" speedFactor="0.9819" arrival="261.00">
        <route edges="S_in W_out"/>
    </vehicle>

    <vehicle id="flow_3_phase1_N_right.5" type="moto" depart="232.00" departLane="1" departPos="0.9771" departSpeed="7.757" speedFactor="0.9059" arrival="268.00">
        <route edges="N_in W_out"/>
    </vehicle>

    <vehicle id="flow_9_phase1_E_straight.13" type="moto" depart="228.00" departLane="0" departPos="114.397" departSpeed="12.4257" speedFactor="0.9282" arrival="279.00">
        <route edges="E_in W_out"/>
    </vehicle>

    <vehicle id="flow_9_phase1_E_straight.14" type="moto" depart="245.00" departLane="0" departPos="184.144" departSpeed="0.6229" speedFactor="0.8543" arrival="281.00">
        <route edges="E_in W_out"/>
    </vehicle>

    <vehicle id="flow_1_phase1_N_straight.9" type="truck" depart="166.00" departLane="0" departPos="96.1141" departSpeed="7.8439" speedFactor="0.9670" arrival="288.00">
        <route edges="W_in N_out"/>
    </vehicle>

    <vehicle id="flow_16_phase1_W_uturn.2" type="car" depart="180.00" departLane="1" departPos="123.2337" departSpeed="6.5131" speedFactor="0.8850" arrival="289.00">
        <route edges="W_in W_out"/>
    </vehicle>

    <vehicle id="flow_7_phase1_S_right.6" type="car" depart="265.00" departLane="1" departPos="80.6527" departSpeed="2.3529" speedFactor="1.1275" arrival="292.00">
        <route edges="S_in E_out"/>
    </vehicle>

    <vehicle id="flow_8_phase1_S_uturn.3" type="bus" depart="269.00" departLane="0" departPos="164.3932" departSpeed="8.5682" speedFactor="0.9700" arrival="294.00">
        <route edges="S_in S_out"/>
    </vehicle>

    <vehicle id="flow_5_phase1_S_straight.14" type="car" depart="252.00" departLane="1" departPos="127.7831" departSpeed="7.2061" speedFactor="0.8047" arrival="295.00">
        <route edges="S_in N_out"/>
    </vehicle>

    <vehicle id="flow_2_phase1_N_left.6" type="moto" depart="267.00" departLane="0" departPos="175.8273" departSpeed="1.4004" speedFactor="0.8416" arrival="299.00">
        <route edges="N_in E_out"/>
    </vehicle>

    <vehicle id="flow_5_phase1_S_straight.15" type="container" depart="270.00" departLane="0" departPos="63.275" departSpeed="5.2029" speedFactor="0.9628" arrival="300.00">
        <route edges="S_in N_out"/>
    </vehicle>

    <vehicle id="flow_13_phase1_W_straight.11" type="moto" depart="200.00" departLane="1" departPos="102.4537" departSpeed="0.6075" speedFactor="1.0140" arrival="304.00">
        <route edges="W_in E_out"/>
    </vehicle>

    <vehicle id="flow_13_phase1_W_straight.12" type="moto" depart="218.00" departLane="0" departPos="52.0012" departSpeed="2.3611" speedFactor="1.1365" arrival="306.00">
        <route edges="W_in E_out"/>
    </vehicle>

    <vehicle id="flow_15_phase1_W_right.5" type="car" depart="223.00" departLane="1" departPos="50.8725" departSpeed="4.8154" speedFactor="0.9653" arrival="308.00">
        <route edges="W_in S_out"/>
    </vehicle>

    <vehicle id="flow_11_phase1_E_right.6" type="car" depart="265.00" departLane="0" departPos="15.6422" departSpeed="13.566" speedFactor="0.9838" arrival="309.00">
        <route edges="E_in N_out"/>
    </vehicle>

    <vehicle id="flow_9_phase1_E_straight.15" type="bus" depart="263.00" departLane="0" departPos="99.1978" departSpeed="6.3593" speedFactor="0.8815" arrival="310.00">
        <route edges="E_in W_out"/>
    </vehicle>

    <vehicle id="flow_13_phase1_W_straight.13" type="moto" depart="237.00" departLane="1" departPos="22.618" departSpeed="0.1774" speedFactor="0.8917" arrival="311.00">
        <route edges="W_in E_out"/>
    </vehicle>

    <vehicle id="flow_13_phase1_W_straight.14" type="moto" depart="255.00" departLane="0" departPos="39.6761" departSpeed="8.4584" speedFactor="1.1523" arrival="313.00">
        <route edges="W_in E_out"/>
    </vehicle>

    <vehicle id="flow_14_phase1_W_left.4" type="bus" depart="188.00" departLane="1" departPos="66.1547" departSpeed="9.7105" speedFactor="0.8196" arrival="318.00">
        <route edges="W_in N_out"/>
    </vehicle>

    <vehicle id="flow_4_phase1_N_uturn.3" type="car" depart="269.00" departLane="1" departPos="36.0857" departSpeed="3.7779" speedFactor="0.9559" arrival="320.00">
        <route edges="N_in N_out"/>
    </vehicle>

    <vehicle id="flow_10_phase1_E_left.6" type="bus" depart="273.00" departLane="1" departPos="147.9348" departSpeed="3.7271" speedFactor="0.9234" arrival="321.00">
        <route edges="E_in S_out"/>
    </vehicle>

    <vehicle id="flow_3_phase1_N_right.6" type="truck" depart="279.00" departLane="0" departPos="153.1849" departSpeed="2.9091" speedFactor="0.9035" arrival="321.00">
        <route edges="N_in W_out"/>
    </vehicle>

    <vehicle id="flow_12_phase1_E_uturn.3" type="car" depart="268.00" departLane="0" departPos="33.0225" departSpeed="1.596" speedFactor="0.8963" arrival="322.00">
        <route edges="S_in N_out"/>
    </vehicle>

    <vehicle id="flow_5_phase1_S_straight.16" type="moto" depart="288.00" departLane="1" departPos="37.6432" departSpeed="8.1483" speedFactor="1.2172" arrival="324.00">
        <route edges="S_in N_out"/>
    </vehicle>

    <vehicle id="flow_6_phase1_S_left.6" type="bus" depart="273.00" departLane="0" departPos="15.5939" departSpeed="7.9405" speedFactor="1.0167" arrival="327.00">
        <route edges="S_in W_out"/>
    </vehicle>

    <vehicle id="flow_15_phase1_W_right.6" type="moto" depart="268.00" departLane="0" departPos="20.6867" departSpeed="4.4106" speedFactor="1.0747" arrival="328.00">
        <route edges="W_in S_out"/>
    </vehicle>

    <vehicle id="flow_9_phase1_E_straight.17" type="moto" depart="298.00" departLane="1" departPos="26.1165" departSpeed="10.7092" speedFactor="1.1149" arrival="329.00">
        <route edges="E_in W_out"/>
    </vehicle>

    <vehicle id="flow_11_phase1_E_right.7" type="moto" depart="309.00" departLane="1" departPos="127.6195" departSpeed="2.052" speedFactor="1.1783" arrival="331.00">
        <route edges="E_in N_out"/>
    </vehicle>

    <vehicle id="flow_13_phase1_W_straight.15" type="car" depart="273.00" departLane="0" departPos="44.1716" departSpeed="14.0419" speedFactor="1.0262" arrival="332.00">
        <route edges="W_in E_out"/>
    </vehicle>

    <vehicle id="flow_9_phase1_E_straight.16" type="moto" depart="280.00" departLane="0" departPos="75.6038" departSpeed="6.4863" speedFactor="0.8950" arrival="332.00">
        <route edges="E_in W_out"/>
    </vehicle>

    <vehicle id="flow_1_phase1_N_straight.10" type="bus" depart="184.00" departLane="0" departPos="114.5714" departSpeed="11.3377" speedFactor="1.0325" arrival="339.00">