<?xml version="1.0" encoding="UTF-8"?>

<!-- generated on 2025-12-09 20:48:17 by Eclipse SUMO sumo Version 1.18.0
<configuration xmlns:xsi="http://www.w3.org/2001/XMLSchema-instance" xsi:noNamespaceSchemaLocation="http://sumo.dlr.de/xsd/sumoConfiguration.xsd">

    <input>
        <net-file value="nets/60p2k/net.net.xml"/>
        <route-files value="nets/60p2k/route_60p2k.rou.xml"/>
    </input>

    <output>
        <summary-output value="result_baseline_1.0_0.1/summary_ep_1.xml"/>
        <tripinfo-output value="result_baseline_1.0_0.1/tripinfo_ep_1.xml"/>
        <vehroute-output value="result_baseline_1.0_0.1/vehroute_ep_1.xml"/>
    </output>

    <time>
        <begin value="0"/>
        <step-length value="1.0"/>
    </time>

    <processing>
        <scale value="1.0"/>
        <time-to-teleport value="600"/>
    </processing>

    <report>
        <verbose value="true"/>
    </report>

    <traci_server>
        <remote-port value="52699"/>
    </traci_server>

    <gui_only>
        <gui-settings-file value="nets/60p2k/gui-settings.xml"/>
    </gui_only>

</configuration>
-->

<tripinfos xmlns:xsi="http://www.w3.org/2001/XMLSchema-instance" xsi:noNamespaceSchemaLocation="http://sumo.dlr.de/xsd/tripinfo_file.xsd">
    <tripinfo id="flow_3_phase1_N_right.0" depart="0.00" departLane="N_in_0" departPos="103.38" departSpeed="3.75" departDelay="0.00" arrival="24.00" arrivalLane="W_out_0" arrivalPos="189.60" arrivalSpeed="14.93" duration="24.00" routeLength="284.85" waitingTime="0.00" waitingCount="0" stopTime="0.00" timeLoss="4.55" rerouteNo="0" devices="vehroute_flow_3_phase1_N_right.0 tripinfo_flow_3_phase1_N_right.0" vType="car" speedFactor="1.09" vaporized=""/>
    <tripinfo id="flow_8_phase1_S_uturn.0" depart="0.00" departLane="S_in_0" departPos="120.11" departSpeed="4.48" departDelay="0.00" arrival="24.00" arrivalLane="S_out_1" arrivalPos="189.60" arrivalSpeed="13.35" duration="24.00" routeLength="263.76" waitingTime="0.00" waitingCount="0" stopTime="0.00" timeLoss="4.90" rerouteNo="0" devices="vehroute_flow_8_phase1_S_uturn.0 tripinfo_flow_8_phase1_S_uturn.0" vType="moto" speedFactor="1.05" vaporized=""/>
    <tripinfo id="flow_5_phase1_S_straight.0" depart="0.00" departLane="S_in_1" departPos="107.37" departSpeed="7.21" departDelay="0.00" arrival="25.00" arrivalLane="N_out_1" arrivalPos="189.60" arrivalSpeed="15.54" duration="25.00" routeLength="292.63" waitingTime="0.00" waitingCount="0" stopTime="0.00" timeLoss="6.40" rerouteNo="0" devices="vehroute_flow_5_phase1_S_straight.0 tripinfo_flow_5_phase1_S_straight.0" vType="moto" speedFactor="1.15" vaporized=""/>
    <tripinfo id="flow_6_phase1_S_left.0" depart="0.00" departLane="S_in_1" departPos="166.01" departSpeed="0.74" departDelay="0.00" arrival="25.00" arrivalLane="W_out_1" arrivalPos="189.60" arrivalSpeed="11.97" duration="25.00" routeLength="232.54" waitingTime="0.00" waitingCount="0" stopTime="0.00" timeLoss="4.34" rerouteNo="0" devices="vehroute_flow_6_phase1_S_left.0 tripinfo_flow_6_phase1_S_left.0" vType="moto" speedFactor="0.88" vaporized=""/>
    <tripinfo id="flow_4_phase1_N_uturn.0" depart="0.00" departLane="N_in_1" departPos="127.60" departSpeed="0.08" departDelay="0.00" arrival="32.00" arrivalLane="N_out_1" arrivalPos="189.60" arrivalSpeed="12.70" duration="32.00" routeLength="256.27" waitingTime="2.00" waitingCount="1" stopTime="0.00" timeLoss="10.46" rerouteNo="0" devices="vehroute_flow_4_phase1_N_uturn.0 tripinfo_flow_4_phase1_N_uturn.0" vType="car" speedFactor="0.92" vaporized=""/>
    <tripinfo id="flow_2_phase1_N_left.0" depart="0.00" departLane="N_in_1" departPos="8.27" departSpeed="8.33" departDelay="0.00" arrival="33.00" arrivalLane="E_out_1" arrivalPos="189.60" arrivalSpeed="13.27" duration="33.00" routeLength="390.28" waitingTime="0.00" waitingCount="0" stopTime="0.00" timeLoss="4.20" rerouteNo="0" devices="vehroute_flow_2_phase1_N_left.0 tripinfo_flow_2_phase1_N_left.0" vType="moto" speedFactor="1.02" vaporized=""/>
    <tripinfo id="flow_1_phase1_N_straight.0" depart="0.00" departLane="N_in_0" departPos="8.62" departSpeed="8.51" departDelay="0.00" arrival="35.00" arrivalLane="S_out_0" arrivalPos="189.60" arrivalSpeed="11.80" duration="35.00" routeLength="391.38" waitingTime="0.00" waitingCount="0" stopTime="0.00" timeLoss="1.38" rerouteNo="0" devices="vehroute_flow_1_phase1_N_straight.0 tripinfo_flow_1_phase1_N_straight.0" vType="bus" speedFactor="0.86" vaporized=""/>
    <tripinfo id="flow_7_phase1_S_right.0" depart="0.00" departLane="S_in_0" departPos="8.76" departSpeed="8.07" departDelay="0.00" arrival="39.00" arrivalLane="E_out_0" arrivalPos="189.60" arrivalSpeed="11.18" duration="39.00" routeLength="379.47" waitingTime="0.00" waitingCount="0" stopTime="0.00" timeLoss="5.93" rerouteNo="0" devices="vehroute_flow_7_phase1_S_right.0 tripinfo_flow_7_phase1_S_right.0" vType="container" speedFactor="0.85" vaporized=""/>
    <tripinfo id="flow_5_phase1_S_straight.1" depart="26.00" departLane="S_in_1" departPos="31.93" departSpeed="9.28" departDelay="0.86" arrival="51.00" arrivalLane="N_out_1" arrivalPos="189.60" arrivalSpeed="14.80" duration="25.00" routeLength="368.07" waitingTime="0.00" waitingCount="0" stopTime="0.00" timeLoss="1.47" rerouteNo="0" devices="vehroute_flow_5_phase1_S_straight.1 tripinfo_flow_5_phase1_S_straight.1" vType="moto" speedFactor="1.19" vaporized=""/>
    <tripinfo id="flow_1_phase1_N_straight.1" depart="26.00" departLane="N_in_1" departPos="58.36" departSpeed="11.64" departDelay="0.32" arrival="56.00" arrivalLane="S_out_0" arrivalPos="189.60" arrivalSpeed="11.79" duration="30.00" routeLength="341.64" waitingTime="0.00" waitingCount="0" stopTime="0.00" timeLoss="1.54" rerouteNo="0" devices="vehroute_flow_1_phase1_N_straight.1 tripinfo_flow_1_phase1_N_straight.1" vType="moto" speedFactor="0.87" vaporized=""/>
    <tripinfo id="flow_14_phase1_W_left.0" depart="0.00" departLane="W_in_1" departPos="182.88" departSpeed="5.61" departDelay="0.00" arrival="60.00" arrivalLane="N_out_1" arrivalPos="189.60" arrivalSpeed="13.74" duration="60.00" routeLength="215.67" waitingTime="37.00" waitingCount="1" stopTime="0.00" timeLoss="43.60" rerouteNo="0" devices="vehroute_flow_14_phase1_W_left.0 tripinfo_flow_14_phase1_W_left.0" vType="moto" speedFactor="1.01" vaporized=""/>
    <tripinfo id="flow_15_phase1_W_right.0" depart="0.00" departLane="W_in_0" departPos="108.38" departSpeed="2.63" departDelay="0.00" arrival="62.00" arrivalLane="S_out_0" arrivalPos="189.60" arrivalSpeed="11.40" duration="62.00" routeLength="279.85" waitingTime="30.00" waitingCount="1" stopTime="0.00" timeLoss="37.01" rerouteNo="0" devices="vehroute_flow_15_phase1_W_right.0 tripinfo_flow_15_phase1_W_right.0" vType="moto" speedFactor="0.85" vaporized=""/>
    <tripinfo id="flow_9_phase1_E_straight.0" depart="0.00" departLane="E_in_0" departPos="168.29" departSpeed="9.83" departDelay="0.00" arrival="65.00" arrivalLane="W_out_0" arrivalPos="189.60" arrivalSpeed="11.82" duration="65.00" routeLength="231.71" waitingTime="35.00" waitingCount="1" stopTime="0.00" timeLoss="45.80" rerouteNo="0" devices="vehroute_flow_9_phase1_E_straight.0 tripinfo_flow_9_phase1_E_straight.0" vType="truck" speedFactor="0.90" vaporized=""/>
    <tripinfo id="flow_10_phase1_E_left.0" depart="0.00" departLane="E_in_0" departPos="44.88" departSpeed="7.69" departDelay="0.00" arrival="65.00" arrivalLane="S_out_1" arrivalPos="189.60" arrivalSpeed="13.75" duration="65.00" routeLength="353.67" waitingTime="27.00" waitingCount="1" stopTime="0.00" timeLoss="38.54" rerouteNo="0" devices="vehroute_flow_10_phase1_E_left.0 tripinfo_flow_10_phase1_E_left.0" vType="truck" speedFactor="1.02" vaporized=""/>
    <tripinfo id="flow_1_phase1_N_straight.2" depart="52.00" departLane="N_in_1" departPos="107.53" departSpeed="1.11" departDelay="0.64" arrival="78.00" arrivalLane="S_out_0" arrivalPos="189.60" arrivalSpeed="12.85" duration="26.00" routeLength="292.47" waitingTime="0.00" waitingCount="0" stopTime="0.00" timeLoss="3.31" rerouteNo="0" devices="vehroute_flow_1_phase1_N_straight.2 tripinfo_flow_1_phase1_N_straight.2" vType="moto" speedFactor="0.93" vaporized=""/>
    <tripinfo id="flow_5_phase1_S_straight.2" depart="51.00" departLane="S_in_1" departPos="12.70" departSpeed="12.41" departDelay="0.73" arrival="82.00" arrivalLane="N_out_0" arrivalPos="189.60" arrivalSpeed="12.57" duration="31.00" routeLength="387.30" waitingTime="0.00" waitingCount="0" stopTime="0.00" timeLoss="1.40" rerouteNo="0" devices="vehroute_flow_5_phase1_S_straight.2 tripinfo_flow_5_phase1_S_straight.2" vType="moto" speedFactor="0.96" vaporized=""/>
    <tripinfo id="flow_2_phase1_N_left.1" depart="63.00" departLane="N_in_1" departPos="128.68" departSpeed="3.06" departDelay="0.91" arrival="87.00" arrivalLane="E_out_1" arrivalPos="189.60" arrivalSpeed="13.24" duration="24.00" routeLength="269.87" waitingTime="0.00" waitingCount="0" stopTime="0.00" timeLoss="4.40" rerouteNo="0" devices="vehroute_flow_2_phase1_N_left.1 tripinfo_flow_2_phase1_N_left.1" vType="moto" speedFactor="1.04" vaporized=""/>
    <tripinfo id="flow_6_phase1_S_left.1" depart="64.00" departLane="S_in_1" departPos="110.92" departSpeed="11.99" departDelay="0.44" arrival="87.00" arrivalLane="W_out_1" arrivalPos="189.60" arrivalSpeed="13.93" duration="23.00" routeLength="287.63" waitingTime="0.00" waitingCount="0" stopTime="0.00" timeLoss="2.46" rerouteNo="0" devices="vehroute_flow_6_phase1_S_left.1 tripinfo_flow_6_phase1_S_left.1" vType="moto" speedFactor="1.05" vaporized=""/>
    <tripinfo id="flow_3_phase1_N_right.1" depart="65.00" departLane="N_in_0" departPos="166.00" departSpeed="1.28" departDelay="0.05" arrival="88.00" arrivalLane="W_out_0" arrivalPos="189.60" arrivalSpeed="11.24" duration="23.00" routeLength="222.23" waitingTime="0.00" waitingCount="0" stopTime="0.00" timeLoss="4.30" rerouteNo="0" devices="vehroute_flow_3_phase1_N_right.1 tripinfo_flow_3_phase1_N_right.1" vType="moto" speedFactor="0.88" vaporized=""/>
    <tripinfo id="flow_7_phase1_S_right.1" depart="62.00" departLane="S_in_0" departPos="8.88" departSpeed="2.82" departDelay="0.26" arrival="93.00" arrivalLane="E_out_0" arrivalPos="189.60" arrivalSpeed="15.20" duration="31.00" routeLength="379.35" waitingTime="0.00" waitingCount="0" stopTime="0.00" timeLoss="5.47" rerouteNo="0" devices="vehroute_flow_7_phase1_S_right.1 tripinfo_flow_7_phase1_S_right.1" vType="moto" speedFactor="1.12" vaporized=""/>
    <tripinfo id="flow_1_phase1_N_straight.3" depart="78.00" departLane="N_in_0" departPos="125.48" departSpeed="6.79" departDelay="0.96" arrival="99.00" arrivalLane="S_out_0" arrivalPos="189.60" arrivalSpeed="13.84" duration="21.00" routeLength="274.52" waitingTime="0.00" waitingCount="0" stopTime="0.00" timeLoss="1.61" rerouteNo="0" devices="vehroute_flow_1_phase1_N_straight.3 tripinfo_flow_1_phase1_N_straight.3" vType="car" speedFactor="1.05" vaporized=""/>
    <tripinfo id="flow_5_phase1_S_straight.3" depart="76.00" departLane="S_in_0" departPos="56.18" departSpeed="8.58" departDelay="0.59" arrival="101.00" arrivalLane="N_out_0" arrivalPos="189.60" arrivalSpeed="14.65" duration="25.00" routeLength="343.82" waitingTime="0.00" waitingCount="0" stopTime="0.00" timeLoss="1.38" rerouteNo="0" devices="vehroute_flow_5_phase1_S_straight.3 tripinfo_flow_5_phase1_S_straight.3" vType="moto" speedFactor="1.08" vaporized=""/>
    <tripinfo id="flow_16_phase1_W_uturn.0" depart="0.00" departLane="W_in_0" departPos="126.68" departSpeed="11.71" departDelay="0.00" arrival="104.00" arrivalLane="W_out_1" arrivalPos="189.60" arrivalSpeed="13.28" duration="104.00" routeLength="257.19" waitingTime="77.00" waitingCount="2" stopTime="0.00" timeLoss="85.01" rerouteNo="0" devices="vehroute_flow_16_phase1_W_uturn.0 tripinfo_flow_16_phase1_W_uturn.0" vType="moto" speedFactor="1.04" vaporized=""/>
    <tripinfo id="flow_12_phase1_E_uturn.0" depart="0.00" departLane="E_in_0" departPos="5.65" departSpeed="13.76" departDelay="0.00" arrival="106.00" arrivalLane="E_out_1" arrivalPos="189.60" arrivalSpeed="14.10" duration="106.00" routeLength="378.22" waitingTime="65.00" waitingCount="3" stopTime="0.00" timeLoss="78.04" rerouteNo="0" devices="vehroute_flow_12_phase1_E_uturn.0 tripinfo_flow_12_phase1_E_uturn.0" vType="moto" speedFactor="1.03" vaporized=""/>
    <tripinfo id="flow_11_phase1_E_right.0" depart="0.00" departLane="E_in_1" departPos="144.95" departSpeed="4.02" departDelay="0.00" arrival="109.00" arrivalLane="N_out_0" arrivalPos="189.60" arrivalSpeed="13.24" duration="109.00" routeLength="243.28" waitingTime="71.00" waitingCount="2" stopTime="0.00" timeLoss="90.15" rerouteNo="0" devices="vehroute_flow_11_phase1_E_right.0 tripinfo_flow_11_phase1_E_right.0" vType="bus" speedFactor="0.96" vaporized=""/>
    <tripinfo id="flow_13_phase1_W_straight.0" depart="0.00" departLane="W_in_0" departPos="24.53" departSpeed="3.79" departDelay="0.00" arrival="115.00" arrivalLane="E_out_0" arrivalPos="189.60" arrivalSpeed="11.10" duration="115.00" routeLength="375.47" waitingTime="61.00" waitingCount="2" stopTime="0.00" timeLoss="81.47" rerouteNo="0" devices="vehroute_flow_13_phase1_W_straight.0 tripinfo_flow_13_phase1_W_straight.0" vType="container" speedFactor="0.82" vaporized=""/>
    <tripinfo id="flow_1_phase1_N_straight.4" depart="103.00" departLane="N_in_0" departPos="128.04" departSpeed="4.99" departDelay="0.28" arrival="128.00" arrivalLane="S_out_0" arrivalPos="189.60" arrivalSpeed="12.11" duration="25.00" routeLength="271.96" waitingTime="0.00" waitingCount="0" stopTime="0.00" timeLoss="3.24" rerouteNo="0" devices="vehroute_flow_1_phase1_N_straight.4 tripinfo_flow_1_phase1_N_straight.4" vType="truck" speedFactor="0.92" vaporized=""/>
    <tripinfo id="flow_5_phase1_S_straight.4" depart="101.00" departLane="S_in_0" departPos="26.76" departSpeed="9.62" departDelay="0.46" arrival="131.00" arrivalLane="N_out_0" arrivalPos="189.60" arrivalSpeed="13.22" duration="30.00" routeLength="373.24" waitingTime="0.00" waitingCount="0" stopTime="0.00" timeLoss="1.56" rerouteNo="0" devices="vehroute_flow_5_phase1_S_straight.4 tripinfo_flow_5_phase1_S_straight.4" vType="container" speedFactor="0.97" vaporized=""/>
    <tripinfo id="flow_2_phase1_N_left.2" depart="125.00" departLane="N_in_1" departPos="112.37" departSpeed="10.40" departDelay="0.82" arrival="146.00" arrivalLane="E_out_1" arrivalPos="189.60" arrivalSpeed="14.92" duration="21.00" routeLength="286.18" waitingTime="0.00" waitingCount="0" stopTime="0.00" timeLoss="1.37" rerouteNo="0" devices="vehroute_flow_2_phase1_N_left.2 tripinfo_flow_2_phase1_N_left.2" vType="emergency" speedFactor="1.10" vaporized=""/>
    <tripinfo id="flow_5_phase1_S_straight.5" depart="126.00" departLane="S_in_1" departPos="168.21" departSpeed="12.11" departDelay="0.32" arrival="146.00" arrivalLane="N_out_1" arrivalPos="189.60" arrivalSpeed="11.34" duration="20.00" routeLength="231.79" waitingTime="0.00" waitingCount="0" stopTime="0.00" timeLoss="1.00" rerouteNo="0" devices="vehroute_flow_5_phase1_S_straight.5 tripinfo_flow_5_phase1_S_straight.5" vType="moto" speedFactor="0.89" vaporized=""/>
    <tripinfo id="flow_15_phase1_W_right.1" depart="63.00" departLane="W_in_0" departPos="73.90" departSpeed="9.22" departDelay="0.61" arrival="148.00" arrivalLane="S_out_0" arrivalPos="189.60" arrivalSpeed="14.41" duration="85.00" routeLength="314.33" waitingTime="49.00" waitingCount="2" stopTime="0.00" timeLoss="63.09" rerouteNo="0" devices="vehroute_flow_15_phase1_W_right.1 tripinfo_flow_15_phase1_W_right.1" vType="moto" speedFactor="1.08" vaporized=""/>
    <tripinfo id="flow_7_phase1_S_right.2" depart="124.00" departLane="S_in_0" departPos="125.76" departSpeed="4.77" departDelay="0.52" arrival="148.00" arrivalLane="E_out_0" arrivalPos="189.60" arrivalSpeed="12.86" duration="24.00" routeLength="262.47" waitingTime="0.00" waitingCount="0" stopTime="0.00" timeLoss="3.69" rerouteNo="0" devices="vehroute_flow_7_phase1_S_right.2 tripinfo_flow_7_phase1_S_right.2" vType="moto" speedFactor="1.00" vaporized=""/>
    <tripinfo id="flow_9_phase1_E_straight.1" depart="25.00" departLane="E_in_0" departPos="131.13" departSpeed="9.54" departDelay="0.53" arrival="149.00" arrivalLane="W_out_0" arrivalPos="189.60" arrivalSpeed="14.71" duration="124.00" routeLength="268.87" waitingTime="88.00" waitingCount="3" stopTime="0.00" timeLoss="106.58" rerouteNo="0" devices="vehroute_flow_9_phase1_E_straight.1 tripinfo_flow_9_phase1_E_straight.1" vType="moto" speedFactor="1.16" vaporized=""/>
    <tripinfo id="flow_13_phase1_W_straight.1" depart="26.00" departLane="W_in_1" departPos="121.65" departSpeed="2.86" departDelay="0.57" arrival="149.00" arrivalLane="E_out_0" arrivalPos="189.60" arrivalSpeed="15.32" duration="123.00" routeLength="278.35" waitingTime="89.00" waitingCount="3" stopTime="0.00" timeLoss="104.92" rerouteNo="0" devices="vehroute_flow_13_phase1_W_straight.1 tripinfo_flow_13_phase1_W_straight.1" vType="car" speedFactor="1.12" vaporized=""/>
    <tripinfo id="flow_4_phase1_N_uturn.1" depart="126.00" departLane="N_in_0" departPos="104.14" departSpeed="12.50" departDelay="0.52" arrival="154.00" arrivalLane="N_out_1" arrivalPos="189.60" arrivalSpeed="11.97" duration="28.00" routeLength="279.73" waitingTime="0.00" waitingCount="0" stopTime="0.00" timeLoss="5.06" rerouteNo="0" devices="vehroute_flow_4_phase1_N_uturn.1 tripinfo_flow_4_phase1_N_uturn.1" vType="moto" speedFactor="0.95" vaporized=""/>
    <tripinfo id="flow_1_phase1_N_straight.5" depart="129.00" departLane="N_in_0" departPos="87.76" departSpeed="9.83" departDelay="0.60" arrival="156.00" arrivalLane="S_out_0" arrivalPos="189.60" arrivalSpeed="11.87" duration="27.00" routeLength="312.24" waitingTime="0.00" waitingCount="0" stopTime="0.00" timeLoss="1.57" rerouteNo="0" devices="vehroute_flow_1_phase1_N_straight.5 tripinfo_flow_1_phase1_N_straight.5" vType="moto" speedFactor="0.90" vaporized=""/>
    <tripinfo id="flow_11_phase1_E_right.1" depart="62.00" departLane="E_in_1" departPos="66.71" departSpeed="7.87" departDelay="0.27" arrival="157.00" arrivalLane="N_out_0" arrivalPos="189.60" arrivalSpeed="10.78" duration="95.00" routeLength="321.52" waitingTime="47.00" waitingCount="2" stopTime="0.00" timeLoss="64.65" rerouteNo="0" devices="vehroute_flow_11_phase1_E_right.1 tripinfo_flow_11_phase1_E_right.1" vType="container" speedFactor="0.78" vaporized=""/>
    <tripinfo id="flow_6_phase1_S_left.2" depart="128.00" departLane="S_in_0" departPos="78.09" departSpeed="13.48" departDelay="0.88" arrival="157.00" arrivalLane="W_out_1" arrivalPos="189.60" arrivalSpeed="13.88" duration="29.00" routeLength="320.46" waitingTime="0.00" waitingCount="0" stopTime="0.00" timeLoss="6.33" rerouteNo="0" devices="vehroute_flow_6_phase1_S_left.2 tripinfo_flow_6_phase1_S_left.2" vType="moto" speedFactor="1.07" vaporized=""/>
    <tripinfo id="flow_3_phase1_N_right.2" depart="130.00" departLane="N_in_1" departPos="39.34" departSpeed="5.11" departDelay="0.11" arrival="158.00" arrivalLane="W_out_0" arrivalPos="189.60" arrivalSpeed="14.37" duration="28.00" routeLength="348.89" waitingTime="0.00" waitingCount="0" stopTime="0.00" timeLoss="4.44" rerouteNo="0" devices="vehroute_flow_3_phase1_N_right.2 tripinfo_flow_3_phase1_N_right.2" vType="moto" speedFactor="1.10" vaporized=""/>
    <tripinfo id="flow_8_phase1_S_uturn.1" depart="126.00" departLane="S_in_0" departPos="31.76" departSpeed="11.77" departDelay="0.74" arrival="159.00" arrivalLane="S_out_1" arrivalPos="189.60" arrivalSpeed="11.81" duration="33.00" routeLength="352.11" waitingTime="0.00" waitingCount="0" stopTime="0.00" timeLoss="4.42" rerouteNo="0" devices="vehroute_flow_8_phase1_S_uturn.1 tripinfo_flow_8_phase1_S_uturn.1" vType="moto" speedFactor="0.94" vaporized=""/>
    <tripinfo id="flow_5_phase1_S_straight.6" depart="151.00" departLane="S_in_1" departPos="109.89" departSpeed="2.41" departDelay="0.18" arrival="174.00" arrivalLane="N_out_1" arrivalPos="189.60" arrivalSpeed="14.72" duration="23.00" routeLength="290.11" waitingTime="0.00" waitingCount="0" stopTime="0.00" timeLoss="3.19" rerouteNo="0" devices="vehroute_flow_5_phase1_S_straight.6 tripinfo_flow_5_phase1_S_straight.6" vType="moto" speedFactor="1.10" vaporized=""/>
    <tripinfo id="flow_1_phase1_N_straight.6" depart="155.00" departLane="N_in_0" departPos="43.18" departSpeed="3.08" departDelay="0.91" arrival="184.00" arrivalLane="S_out_0" arrivalPos="189.60" arrivalSpeed="13.32" duration="29.00" routeLength="356.82" waitingTime="0.00" waitingCount="0" stopTime="0.00" timeLoss="2.72" rerouteNo="0" devices="vehroute_flow_1_phase1_N_straight.6 tripinfo_flow_1_phase1_N_straight.6" vType="car" speedFactor="0.98" vaporized=""/>
    <tripinfo id="flow_13_phase1_W_straight.3" depart="77.00" departLane="W_in_0" departPos="132.62" departSpeed="5.49" departDelay="0.71" arrival="194.00" arrivalLane="E_out_0" arrivalPos="189.60" arrivalSpeed="15.11" duration="117.00" routeLength="267.38" waitingTime="79.00" waitingCount="3" stopTime="0.00" timeLoss="99.75" rerouteNo="0" devices="vehroute_flow_13_phase1_W_straight.3 tripinfo_flow_13_phase1_W_straight.3" vType="moto" speedFactor="1.20" vaporized=""/>
    <tripinfo id="flow_9_phase1_E_straight.2" depart="49.00" departLane="E_in_1" departPos="52.87" departSpeed="0.38" departDelay="0.07" arrival="195.00" arrivalLane="W_out_0" arrivalPos="189.60" arrivalSpeed="12.98" duration="146.00" routeLength="347.13" waitingTime="105.00" waitingCount="3" stopTime="0.00" timeLoss="120.87" rerouteNo="0" devices="vehroute_flow_9_phase1_E_straight.2 tripinfo_flow_9_phase1_E_straight.2" vType="moto" speedFactor="0.99" vaporized=""/>
    <tripinfo id="flow_13_phase1_W_straight.2" depart="51.00" departLane="W_in_1" departPos="59.51" departSpeed="13.32" departDelay="0.14" arrival="199.00" arrivalLane="E_out_1" arrivalPos="189.60" arrivalSpeed="13.32" duration="148.00" routeLength="340.49" waitingTime="100.00" waitingCount="3" stopTime="0.00" timeLoss="121.66" rerouteNo="0" devices="vehroute_flow_13_phase1_W_straight.2 tripinfo_flow_13_phase1_W_straight.2" vType="bus" speedFactor="0.97" vaporized=""/>
    <tripinfo id="flow_1_phase1_N_straight.7" depart="180.00" departLane="N_in_1" departPos="150.35" departSpeed="8.40" departDelay="0.23" arrival="200.00" arrivalLane="S_out_1" arrivalPos="189.60" arrivalSpeed="14.33" duration="20.00" routeLength="249.65" waitingTime="0.00" waitingCount="0" stopTime="0.00" timeLoss="2.86" rerouteNo="0" devices="vehroute_flow_1_phase1_N_straight.7 tripinfo_flow_1_phase1_N_straight.7" vType="moto" speedFactor="1.06" vaporized=""/>
    <tripinfo id="flow_9_phase1_E_straight.4" depart="98.00" departLane="E_in_1" departPos="135.04" departSpeed="3.72" departDelay="0.14" arrival="201.00" arrivalLane="W_out_0" arrivalPos="189.60" arrivalSpeed="12.93" duration="103.00" routeLength="264.96" waitingTime="59.00" waitingCount="2" stopTime="0.00" timeLoss="82.03" rerouteNo="0" devices="vehroute_flow_9_phase1_E_straight.4 tripinfo_flow_9_phase1_E_straight.4" vType="bus" speedFactor="0.95" vaporized=""/>
    <tripinfo id="flow_5_phase1_S_straight.7" depart="176.00" departLane="S_in_1" departPos="88.32" departSpeed="10.69" departDelay="0.05" arrival="202.00" arrivalLane="N_out_0" arrivalPos="189.60" arrivalSpeed="12.18" duration="26.00" routeLength="311.68" waitingTime="0.00" waitingCount="0" stopTime="0.00" timeLoss="0.92" rerouteNo="0" devices="vehroute_flow_5_phase1_S_straight.7 tripinfo_flow_5_phase1_S_straight.7" vType="bus" speedFactor="0.90" vaporized=""/>
    <tripinfo id="flow_7_phase1_S_right.3" depart="186.00" departLane="S_in_0" departPos="107.99" departSpeed="1.26" departDelay="0.78" arrival="211.00" arrivalLane="E_out_0" arrivalPos="189.60" arrivalSpeed="14.20" duration="25.00" routeLength="280.24" waitingTime="0.00" waitingCount="0" stopTime="0.00" timeLoss="5.48" rerouteNo="0" devices="vehroute_flow_7_phase1_S_right.3 tripinfo_flow_7_phase1_S_right.3" vType="moto" speedFactor="1.07" vaporized=""/>
    <tripinfo id="flow_6_phase1_S_left.3" depart="191.00" departLane="S_in_1" departPos="140.12" departSpeed="12.09" departDelay="0.32" arrival="212.00" arrivalLane="W_out_1" arrivalPos="189.60" arrivalSpeed="15.16" duration="21.00" routeLength="258.43" waitingTime="0.00" waitingCount="0" stopTime="0.00" timeLoss="2.56" rerouteNo="0" devices="vehroute_flow_6_phase1_S_left.3 tripinfo_flow_6_phase1_S_left.3" vType="car" speedFactor="1.10" vaporized=""/>
    <tripinfo id="flow_2_phase1_N_left.3" depart="187.00" departLane="N_in_1" departPos="86.40" departSpeed="1.47" departDelay="0.73" arrival="219.00" arrivalLane="E_out_1" arrivalPos="189.60" arrivalSpeed="11.72" duration="32.00" routeLength="312.15" waitingTime="0.00" waitingCount="0" stopTime="0.00" timeLoss="4.86" rerouteNo="0" devices="vehroute_flow_2_phase1_N_left.3 tripinfo_flow_2_phase1_N_left.3" vType="moto" speedFactor="0.89" vaporized=""/>
    <tripinfo id="flow_5_phase1_S_straight.8" depart="202.00" departLane="S_in_1" departPos="84.74" departSpeed="4.18" departDelay="0.91" arrival="224.00" arrivalLane="N_out_1" arrivalPos="189.60" arrivalSpeed="15.34" duration="22.00" routeLength="315.26" waitingTime="0.00" waitingCount="0" stopTime="0.00" timeLoss="1.85" rerouteNo="0" devices="vehroute_flow_5_phase1_S_straight.8 tripinfo_flow_5_phase1_S_straight.8" vType="emergency" speedFactor="1.14" vaporized=""/>
    <tripinfo id="flow_3_phase1_N_right.3" depart="195.00" departLane="N_in_1" departPos="2.21" departSpeed="7.06" departDelay="0.16" arrival="229.00" arrivalLane="W_out_0" arrivalPos="189.60" arrivalSpeed="12.76" duration="34.00" routeLength="386.02" waitingTime="0.00" waitingCount="0" stopTime="0.00" timeLoss="3.64" rerouteNo="0" devices="vehroute_flow_3_phase1_N_right.3 tripinfo_flow_3_phase1_N_right.3" vType="moto" speedFactor="0.96" vaporized=""/>
    <tripinfo id="flow_11_phase1_E_right.2" depart="124.00" departLane="E_in_0" departPos="52.57" departSpeed="9.36" departDelay="0.54" arrival="238.00" arrivalLane="N_out_0" arrivalPos="189.60" arrivalSpeed="15.62" duration="114.00" routeLength="335.66" waitingTime="73.00" waitingCount="2" stopTime="0.00" timeLoss="92.21" rerouteNo="0" devices="vehroute_flow_11_phase1_E_right.2 tripinfo_flow_11_phase1_E_right.2" vType="moto" speedFactor="1.14" vaporized=""/>
    <tripinfo id="flow_13_phase1_W_straight.4" depart="102.00" departLane="W_in_0" departPos="91.01" departSpeed="4.49" departDelay="0.28" arrival="247.00" arrivalLane="E_out_0" arrivalPos="189.60" arrivalSpeed="11.53" duration="145.00" routeLength="308.99" waitingTime="97.00" waitingCount="3" stopTime="0.00" timeLoss="118.89" rerouteNo="0" devices="vehroute_flow_13_phase1_W_straight.4 tripinfo_flow_13_phase1_W_straight.4" vType="bus" speedFactor="0.87" vaporized=""/>
    <tripinfo id="flow_1_phase1_N_straight.8" depart="206.00" departLane="N_in_0" departPos="2.52" departSpeed="4.94" departDelay="0.55" arrival="248.00" arrivalLane="S_out_0" arrivalPos="189.60" arrivalSpeed="13.48" duration="42.00" routeLength="397.48" waitingTime="1.00" waitingCount="1" stopTime="0.00" timeLoss="12.37" rerouteNo="0" devices="vehroute_flow_1_phase1_N_straight.8 tripinfo_flow_1_phase1_N_straight.8" vType="moto" speedFactor="0.97" vaporized=""/>
    <tripinfo id="flow_14_phase1_W_left.1" depart="66.00" departLane="W_in_0" departPos="93.41" departSpeed="10.64" departDelay="0.51" arrival="249.00" arrivalLane="N_out_1" arrivalPos="189.60" arrivalSpeed="12.57" duration="183.00" routeLength="305.14" waitingTime="126.00" waitingCount="5" stopTime="0.00" timeLoss="157.79" rerouteNo="0" devices="vehroute_flow_14_phase1_W_left.1 tripinfo_flow_14_phase1_W_left.1" vType="container" speedFactor="0.91" vaporized=""/>
    <tripinfo id="flow_5_phase1_S_straight.9" depart="227.00" departLane="S_in_0" departPos="174.11" departSpeed="0.50" departDelay="0.78" arrival="252.00" arrivalLane="N_out_0" arrivalPos="189.60" arrivalSpeed="15.38" duration="25.00" routeLength="225.89" waitingTime="1.00" waitingCount="1" stopTime="0.00" timeLoss="10.53" rerouteNo="0" devices="vehroute_flow_5_phase1_S_straight.9 tripinfo_flow_5_phase1_S_straight.9" vType="moto" speedFactor="1.30" vaporized=""/>
    <tripinfo id="flow_10_phase1_E_left.1" depart="64.00" departLane="E_in_1" departPos="4.52" departSpeed="3.89" departDelay="0.35" arrival="256.00" arrivalLane="S_out_0" arrivalPos="189.60" arrivalSpeed="9.98" duration="192.00" routeLength="394.03" waitingTime="129.00" waitingCount="5" stopTime="0.00" timeLoss="153.38" rerouteNo="0" devices="vehroute_flow_10_phase1_E_left.1 tripinfo_flow_10_phase1_E_left.1" vType="truck" speedFactor="0.77" vaporized=""/>
    <tripinfo id="flow_1_phase1_N_straight.9" depart="232.00" departLane="N_in_1" departPos="103.27" departSpeed="10.69" departDelay="0.87" arrival="256.00" arrivalLane="S_out_1" arrivalPos="189.60" arrivalSpeed="13.24" duration="24.00" routeLength="296.73" waitingTime="0.00" waitingCount="0" stopTime="0.00" timeLoss="1.47" rerouteNo="0" devices="vehroute_flow_1_phase1_N_straight.9 tripinfo_flow_1_phase1_N_straight.9" vType="truck" speedFactor="0.97" vaporized=""/>
    <tripinfo id="flow_5_phase1_S_straight.10" depart="252.00" departLane="S_in_1" departPos="159.87" departSpeed="7.57" departDelay="0.64" arrival="271.00" arrivalLane="N_out_1" arrivalPos="189.60" arrivalSpeed="13.56" duration="19.00" routeLength="240.13" waitingTime="0.00" waitingCount="0" stopTime="0.00" timeLoss="1.38" rerouteNo="0" devices="vehroute_flow_5_phase1_S_straight.10 tripinfo_flow_5_phase1_S_straight.10" vType="moto" speedFactor="1.03" vaporized=""/>
    <tripinfo id="flow_7_phase1_S_right.4" depart="247.00" departLane="S_in_1" departPos="90.82" departSpeed="10.68" departDelay="0.04" arrival="273.00" arrivalLane="E_out_0" arrivalPos="189.60" arrivalSpeed="12.89" duration="26.00" routeLength="297.41" waitingTime="0.00" waitingCount="0" stopTime="0.00" timeLoss="3.17" rerouteNo="0" devices="vehroute_flow_7_phase1_S_right.4 tripinfo_flow_7_phase1_S_right.4" vType="moto" speedFactor="0.96" vaporized=""/>