<?xml version="1.0" encoding="UTF-8"?>

<!-- generated on 2025-12-09 05:39:07 by Eclipse SUMO sumo Version 1.18.0
<configuration xmlns:xsi="http://www.w3.org/2001/XMLSchema-instance" xsi:noNamespaceSchemaLocation="http://sumo.dlr.de/xsd/sumoConfiguration.xsd">

    <input>
        <net-file value="nets/120p4k/net.net.xml"/>
        <route-files value="nets/120p4k/route_120p4k.rou.xml"/>
    </input>

    <output>
        <summary-output value="result_baseline_1.2_0.1/summary_ep_7.xml"/>
        <tripinfo-output value="result_baseline_1.2_0.1/tripinfo_ep_7.xml"/>
        <vehroute-output value="result_baseline_1.2_0.1/vehroute_ep_7.xml"/>
    </output>

    <time>
        <begin value="0"/>
        <step-length value="1.0"/>
    </time>

    <processing>
        <scale value="1.2"/>
        <time-to-teleport value="600"/>
    </processing>

    <report>
        <verbose value="true"/>
    </report>

    <traci_server>
        <remote-port value="46643"/>
    </traci_server>

    <gui_only>
        <gui-settings-file value="nets/120p4k/gui-settings.xml"/>
    </gui_only>

</configuration>
-->

<tripinfos xmlns:xsi="http://www.w3.org/2001/XMLSchema-instance" xsi:noNamespaceSchemaLocation="http://sumo.dlr.de/xsd/tripinfo_file.xsd">
    <tripinfo id="flow_3_increasing_0_N_right.0" depart="0.00" departLane="N_in_0" departPos="103.38" departSpeed="3.81" departDelay="0.00" arrival="24.00" arrivalLane="W_out_0" arrivalPos="189.60" arrivalSpeed="15.18" duration="24.00" routeLength="284.85" waitingTime="0.00" waitingCount="0" stopTime="0.00" timeLoss="4.59" rerouteNo="0" devices="vehroute_flow_3_increasing_0_N_right.0 tripinfo_flow_3_increasing_0_N_right.0" vType="moto" speedFactor="1.11" vaporized=""/>
    <tripinfo id="flow_8_increasing_0_S_uturn.0" depart="0.00" departLane="S_in_0" departPos="120.11" departSpeed="4.48" departDelay="0.00" arrival="24.00" arrivalLane="S_out_1" arrivalPos="189.60" arrivalSpeed="13.35" duration="24.00" routeLength="263.76" waitingTime="0.00" waitingCount="0" stopTime="0.00" timeLoss="4.90" rerouteNo="0" devices="vehroute_flow_8_increasing_0_S_uturn.0 tripinfo_flow_8_increasing_0_S_uturn.0" vType="moto" speedFactor="1.05" vaporized=""/>
    <tripinfo id="flow_5_increasing_0_S_straight.0" depart="0.00" departLane="S_in_1" departPos="107.37" departSpeed="7.21" departDelay="0.00" arrival="25.00" arrivalLane="N_out_1" arrivalPos="189.60" arrivalSpeed="15.67" duration="25.00" routeLength="292.63" waitingTime="0.00" waitingCount="0" stopTime="0.00" timeLoss="6.12" rerouteNo="0" devices="vehroute_flow_5_increasing_0_S_straight.0 tripinfo_flow_5_increasing_0_S_straight.0" vType="moto" speedFactor="1.15" vaporized=""/>
    <tripinfo id="flow_6_increasing_0_S_left.0" depart="0.00" departLane="S_in_1" departPos="166.01" departSpeed="0.74" departDelay="0.00" arrival="25.00" arrivalLane="W_out_1" arrivalPos="189.60" arrivalSpeed="11.97" duration="25.00" routeLength="232.54" waitingTime="0.00" waitingCount="0" stopTime="0.00" timeLoss="4.34" rerouteNo="0" devices="vehroute_flow_6_increasing_0_S_left.0 tripinfo_flow_6_increasing_0_S_left.0" vType="moto" speedFactor="0.88" vaporized=""/>
    <tripinfo id="flow_2_increasing_0_N_left.0" depart="0.00" departLane="N_in_1" departPos="8.27" departSpeed="8.33" departDelay="0.00" arrival="32.00" arrivalLane="E_out_1" arrivalPos="189.60" arrivalSpeed="13.89" duration="32.00" routeLength="390.28" waitingTime="0.00" waitingCount="0" stopTime="0.00" timeLoss="3.35" rerouteNo="0" devices="vehroute_flow_2_increasing_0_N_left.0 tripinfo_flow_2_increasing_0_N_left.0" vType="moto" speedFactor="1.02" vaporized=""/>
    <tripinfo id="flow_4_increasing_0_N_uturn.0" depart="0.00" departLane="N_in_1" departPos="127.60" departSpeed="0.08" departDelay="0.00" arrival="32.00" arrivalLane="N_out_1" arrivalPos="189.60" arrivalSpeed="12.06" duration="32.00" routeLength="256.27" waitingTime="1.00" waitingCount="1" stopTime="0.00" timeLoss="9.79" rerouteNo="0" devices="vehroute_flow_4_increasing_0_N_uturn.0 tripinfo_flow_4_increasing_0_N_uturn.0" vType="moto" speedFactor="0.91" vaporized=""/>
    <tripinfo id="flow_1_increasing_0_N_straight.0" depart="0.00" departLane="N_in_0" departPos="8.62" departSpeed="8.51" departDelay="0.00" arrival="35.00" arrivalLane="S_out_0" arrivalPos="189.60" arrivalSpeed="11.79" duration="35.00" routeLength="391.38" waitingTime="0.00" waitingCount="0" stopTime="0.00" timeLoss="1.43" rerouteNo="0" devices="vehroute_flow_1_increasing_0_N_straight.0 tripinfo_flow_1_increasing_0_N_straight.0" vType="truck" speedFactor="0.86" vaporized=""/>
    <tripinfo id="flow_7_increasing_0_S_right.0" depart="0.00" departLane="S_in_0" departPos="8.76" departSpeed="8.47" departDelay="0.00" arrival="36.00" arrivalLane="E_out_0" arrivalPos="189.60" arrivalSpeed="11.79" duration="36.00" routeLength="379.47" waitingTime="0.00" waitingCount="0" stopTime="0.00" timeLoss="4.83" rerouteNo="0" devices="vehroute_flow_7_increasing_0_S_right.0 tripinfo_flow_7_increasing_0_S_right.0" vType="bus" speedFactor="0.89" vaporized=""/>
    <tripinfo id="flow_10_increasing_0_E_left.0" depart="0.00" departLane="E_in_0" departPos="44.88" departSpeed="8.19" departDelay="0.00" arrival="59.00" arrivalLane="S_out_1" arrivalPos="189.60" arrivalSpeed="14.41" duration="59.00" routeLength="353.67" waitingTime="27.00" waitingCount="1" stopTime="0.00" timeLoss="34.85" rerouteNo="0" devices="vehroute_flow_10_increasing_0_E_left.0 tripinfo_flow_10_increasing_0_E_left.0" vType="car" speedFactor="1.08" vaporized=""/>
    <tripinfo id="flow_9_increasing_0_E_straight.0" depart="0.00" departLane="E_in_0" departPos="168.29" departSpeed="10.73" departDelay="0.00" arrival="61.00" arrivalLane="W_out_0" arrivalPos="189.60" arrivalSpeed="12.69" duration="61.00" routeLength="231.71" waitingTime="36.00" waitingCount="1" stopTime="0.00" timeLoss="43.11" rerouteNo="0" devices="vehroute_flow_9_increasing_0_E_straight.0 tripinfo_flow_9_increasing_0_E_straight.0" vType="car" speedFactor="0.94" vaporized=""/>
    <tripinfo id="flow_15_increasing_0_W_right.0" depart="0.00" departLane="W_in_0" departPos="108.38" departSpeed="2.63" departDelay="0.00" arrival="62.00" arrivalLane="S_out_0" arrivalPos="189.60" arrivalSpeed="10.72" duration="62.00" routeLength="279.85" waitingTime="30.00" waitingCount="1" stopTime="0.00" timeLoss="37.11" rerouteNo="0" devices="vehroute_flow_15_increasing_0_W_right.0 tripinfo_flow_15_increasing_0_W_right.0" vType="moto" speedFactor="0.85" vaporized=""/>
    <tripinfo id="flow_14_increasing_0_W_left.0" depart="0.00" departLane="W_in_1" departPos="182.88" departSpeed="5.61" departDelay="0.00" arrival="64.00" arrivalLane="N_out_1" arrivalPos="189.60" arrivalSpeed="12.84" duration="64.00" routeLength="215.67" waitingTime="37.00" waitingCount="1" stopTime="0.00" timeLoss="47.11" rerouteNo="0" devices="vehroute_flow_14_increasing_0_W_left.0 tripinfo_flow_14_increasing_0_W_left.0" vType="moto" speedFactor="1.01" vaporized=""/>
    <tripinfo id="flow_1_increasing_0_N_straight.1" depart="53.00" departLane="N_in_1" departPos="121.65" departSpeed="2.92" departDelay="0.65" arrival="74.00" arrivalLane="S_out_1" arrivalPos="189.60" arrivalSpeed="14.99" duration="21.00" routeLength="278.35" waitingTime="0.00" waitingCount="0" stopTime="0.00" timeLoss="2.96" rerouteNo="0" devices="vehroute_flow_1_increasing_0_N_straight.1 tripinfo_flow_1_increasing_0_N_straight.1" vType="moto" speedFactor="1.15" vaporized=""/>
    <tripinfo id="flow_5_increasing_0_S_straight.1" depart="50.00" departLane="S_in_1" departPos="58.36" departSpeed="11.64" departDelay="0.25" arrival="80.00" arrivalLane="N_out_0" arrivalPos="189.60" arrivalSpeed="11.61" duration="30.00" routeLength="341.64" waitingTime="0.00" waitingCount="0" stopTime="0.00" timeLoss="1.45" rerouteNo="0" devices="vehroute_flow_5_increasing_0_S_straight.1 tripinfo_flow_5_increasing_0_S_straight.1" vType="moto" speedFactor="0.87" vaporized=""/>
    <tripinfo id="flow_16_increasing_0_W_uturn.0" depart="0.00" departLane="W_in_0" departPos="126.68" departSpeed="11.71" departDelay="0.00" arrival="104.00" arrivalLane="W_out_1" arrivalPos="189.60" arrivalSpeed="14.32" duration="104.00" routeLength="257.19" waitingTime="78.00" waitingCount="2" stopTime="0.00" timeLoss="84.99" rerouteNo="0" devices="vehroute_flow_16_increasing_0_W_uturn.0 tripinfo_flow_16_increasing_0_W_uturn.0" vType="moto" speedFactor="1.04" vaporized=""/>
    <tripinfo id="flow_12_increasing_0_E_uturn.0" depart="0.00" departLane="E_in_0" departPos="5.65" departSpeed="13.76" departDelay="0.00" arrival="106.00" arrivalLane="E_out_1" arrivalPos="189.60" arrivalSpeed="14.27" duration="106.00" routeLength="378.22" waitingTime="68.00" waitingCount="2" stopTime="0.00" timeLoss="78.07" rerouteNo="0" devices="vehroute_flow_12_increasing_0_E_uturn.0 tripinfo_flow_12_increasing_0_E_uturn.0" vType="moto" speedFactor="1.03" vaporized=""/>
    <tripinfo id="flow_11_increasing_0_E_right.0" depart="0.00" departLane="E_in_1" departPos="144.95" departSpeed="4.02" departDelay="0.00" arrival="109.00" arrivalLane="N_out_0" arrivalPos="189.60" arrivalSpeed="13.05" duration="109.00" routeLength="243.28" waitingTime="73.00" waitingCount="2" stopTime="0.00" timeLoss="89.43" rerouteNo="0" devices="vehroute_flow_11_increasing_0_E_right.0 tripinfo_flow_11_increasing_0_E_right.0" vType="bus" speedFactor="0.96" vaporized=""/>
    <tripinfo id="flow_13_increasing_0_W_straight.0" depart="0.00" departLane="W_in_0" departPos="24.53" departSpeed="3.97" departDelay="0.00" arrival="111.00" arrivalLane="E_out_0" arrivalPos="189.60" arrivalSpeed="11.54" duration="111.00" routeLength="375.47" waitingTime="62.00" waitingCount="2" stopTime="0.00" timeLoss="79.20" rerouteNo="0" devices="vehroute_flow_13_increasing_0_W_straight.0 tripinfo_flow_13_increasing_0_W_straight.0" vType="bus" speedFactor="0.86" vaporized=""/>
    <tripinfo id="flow_5_increasing_0_S_straight.2" depart="100.00" departLane="S_in_1" departPos="12.70" departSpeed="12.41" departDelay="0.50" arrival="131.00" arrivalLane="N_out_0" arrivalPos="189.60" arrivalSpeed="13.11" duration="31.00" routeLength="387.30" waitingTime="0.00" waitingCount="0" stopTime="0.00" timeLoss="1.41" rerouteNo="0" devices="vehroute_flow_5_increasing_0_S_straight.2 tripinfo_flow_5_increasing_0_S_straight.2" vType="moto" speedFactor="0.96" vaporized=""/>
    <tripinfo id="flow_1_increasing_0_N_straight.2" depart="105.00" departLane="N_in_1" departPos="107.53" departSpeed="1.11" departDelay="0.29" arrival="132.00" arrivalLane="S_out_0" arrivalPos="189.60" arrivalSpeed="12.52" duration="27.00" routeLength="292.47" waitingTime="0.00" waitingCount="0" stopTime="0.00" timeLoss="3.44" rerouteNo="0" devices="vehroute_flow_1_increasing_0_N_straight.2 tripinfo_flow_1_increasing_0_N_straight.2" vType="moto" speedFactor="0.93" vaporized=""/>
    <tripinfo id="flow_9_increasing_0_E_straight.1" depart="49.00" departLane="E_in_0" departPos="131.13" departSpeed="9.54" departDelay="0.92" arrival="149.00" arrivalLane="W_out_0" arrivalPos="189.60" arrivalSpeed="14.97" duration="100.00" routeLength="268.87" waitingTime="72.00" waitingCount="2" stopTime="0.00" timeLoss="82.80" rerouteNo="0" devices="vehroute_flow_9_increasing_0_E_straight.1 tripinfo_flow_9_increasing_0_E_straight.1" vType="moto" speedFactor="1.16" vaporized=""/>
    <tripinfo id="flow_13_increasing_0_W_straight.1" depart="51.00" departLane="W_in_1" departPos="31.93" departSpeed="9.28" departDelay="0.50" arrival="149.00" arrivalLane="E_out_0" arrivalPos="189.60" arrivalSpeed="15.81" duration="98.00" routeLength="368.07" waitingTime="62.00" waitingCount="2" stopTime="0.00" timeLoss="74.08" rerouteNo="0" devices="vehroute_flow_13_increasing_0_W_straight.1 tripinfo_flow_13_increasing_0_W_straight.1" vType="moto" speedFactor="1.19" vaporized=""/>
    <tripinfo id="flow_9_increasing_0_E_straight.2" depart="97.00" departLane="E_in_1" departPos="52.87" departSpeed="0.38" departDelay="0.85" arrival="150.00" arrivalLane="W_out_0" arrivalPos="189.60" arrivalSpeed="13.46" duration="53.00" routeLength="347.13" waitingTime="18.00" waitingCount="1" stopTime="0.00" timeLoss="27.84" rerouteNo="0" devices="vehroute_flow_9_increasing_0_E_straight.2 tripinfo_flow_9_increasing_0_E_straight.2" vType="moto" speedFactor="0.99" vaporized=""/>
    <tripinfo id="flow_13_increasing_0_W_straight.2" depart="102.00" departLane="W_in_1" departPos="59.51" departSpeed="13.32" departDelay="0.99" arrival="154.00" arrivalLane="E_out_0" arrivalPos="189.60" arrivalSpeed="13.23" duration="52.00" routeLength="340.49" waitingTime="16.00" waitingCount="1" stopTime="0.00" timeLoss="26.27" rerouteNo="0" devices="vehroute_flow_13_increasing_0_W_straight.2 tripinfo_flow_13_increasing_0_W_straight.2" vType="truck" speedFactor="0.97" vaporized=""/>
    <tripinfo id="flow_2_increasing_0_N_left.1" depart="122.00" departLane="N_in_0" departPos="8.88" departSpeed="2.82" departDelay="0.05" arrival="154.00" arrivalLane="E_out_1" arrivalPos="189.60" arrivalSpeed="15.06" duration="32.00" routeLength="389.67" waitingTime="0.00" waitingCount="0" stopTime="0.00" timeLoss="5.59" rerouteNo="0" devices="vehroute_flow_2_increasing_0_N_left.1 tripinfo_flow_2_increasing_0_N_left.1" vType="moto" speedFactor="1.12" vaporized=""/>
    <tripinfo id="flow_6_increasing_0_S_left.1" depart="125.00" departLane="S_in_0" departPos="73.90" departSpeed="7.20" departDelay="0.62" arrival="156.00" arrivalLane="W_out_1" arrivalPos="189.60" arrivalSpeed="14.72" duration="31.00" routeLength="324.65" waitingTime="1.00" waitingCount="1" stopTime="0.00" timeLoss="7.79" rerouteNo="0" devices="vehroute_flow_6_increasing_0_S_left.1 tripinfo_flow_6_increasing_0_S_left.1" vType="moto" speedFactor="1.08" vaporized=""/>
    <tripinfo id="flow_3_increasing_0_N_right.1" depart="131.00" departLane="N_in_0" departPos="93.41" departSpeed="11.76" departDelay="0.79" arrival="160.00" arrivalLane="W_out_0" arrivalPos="189.60" arrivalSpeed="12.42" duration="29.00" routeLength="294.82" waitingTime="0.00" waitingCount="0" stopTime="0.00" timeLoss="4.60" rerouteNo="0" devices="vehroute_flow_3_increasing_0_N_right.1 tripinfo_flow_3_increasing_0_N_right.1" vType="container" speedFactor="0.91" vaporized=""/>
    <tripinfo id="flow_7_increasing_0_S_right.1" depart="122.00" departLane="S_in_1" departPos="66.71" departSpeed="7.87" departDelay="0.05" arrival="166.00" arrivalLane="E_out_0" arrivalPos="189.60" arrivalSpeed="10.50" duration="44.00" routeLength="321.52" waitingTime="2.00" waitingCount="1" stopTime="0.00" timeLoss="13.35" rerouteNo="0" devices="vehroute_flow_7_increasing_0_S_right.1 tripinfo_flow_7_increasing_0_S_right.1" vType="container" speedFactor="0.78" vaporized=""/>
    <tripinfo id="flow_5_increasing_0_S_straight.3" depart="150.00" departLane="S_in_0" departPos="184.19" departSpeed="8.58" departDelay="0.75" arrival="166.00" arrivalLane="N_out_0" arrivalPos="189.60" arrivalSpeed="14.47" duration="16.00" routeLength="215.81" waitingTime="0.00" waitingCount="0" stopTime="0.00" timeLoss="1.07" rerouteNo="0" devices="vehroute_flow_5_increasing_0_S_straight.3 tripinfo_flow_5_increasing_0_S_straight.3" vType="moto" speedFactor="1.08" vaporized=""/>
    <tripinfo id="flow_1_increasing_0_N_straight.3" depart="158.00" departLane="N_in_1" departPos="88.42" departSpeed="1.49" departDelay="0.94" arrival="183.00" arrivalLane="S_out_1" arrivalPos="189.60" arrivalSpeed="14.24" duration="25.00" routeLength="311.58" waitingTime="0.00" waitingCount="0" stopTime="0.00" timeLoss="3.09" rerouteNo="0" devices="vehroute_flow_1_increasing_0_N_straight.3 tripinfo_flow_1_increasing_0_N_straight.3" vType="moto" speedFactor="1.06" vaporized=""/>
    <tripinfo id="flow_15_increasing_0_W_right.1" depart="123.00" departLane="W_in_1" departPos="128.68" departSpeed="3.06" departDelay="0.45" arrival="194.00" arrivalLane="S_out_0" arrivalPos="189.60" arrivalSpeed="14.36" duration="71.00" routeLength="259.55" waitingTime="41.00" waitingCount="1" stopTime="0.00" timeLoss="51.74" rerouteNo="0" devices="vehroute_flow_15_increasing_0_W_right.1 tripinfo_flow_15_increasing_0_W_right.1" vType="moto" speedFactor="1.04" vaporized=""/>
    <tripinfo id="flow_14_increasing_0_W_left.1" depart="125.00" departLane="W_in_1" departPos="110.92" departSpeed="11.99" departDelay="0.62" arrival="194.00" arrivalLane="N_out_1" arrivalPos="189.60" arrivalSpeed="13.86" duration="69.00" routeLength="287.63" waitingTime="38.00" waitingCount="1" stopTime="0.00" timeLoss="48.50" rerouteNo="0" devices="vehroute_flow_14_increasing_0_W_left.1 tripinfo_flow_14_increasing_0_W_left.1" vType="moto" speedFactor="1.05" vaporized=""/>
    <tripinfo id="flow_11_increasing_0_E_right.1" depart="127.00" departLane="E_in_0" departPos="166.00" departSpeed="1.28" departDelay="0.10" arrival="196.00" arrivalLane="N_out_0" arrivalPos="189.60" arrivalSpeed="12.07" duration="69.00" routeLength="222.23" waitingTime="41.00" waitingCount="1" stopTime="0.00" timeLoss="49.76" rerouteNo="0" devices="vehroute_flow_11_increasing_0_E_right.1 tripinfo_flow_11_increasing_0_E_right.1" vType="moto" speedFactor="0.88" vaporized=""/>
    <tripinfo id="flow_10_increasing_0_E_left.1" depart="127.00" departLane="E_in_1" departPos="4.52" departSpeed="3.91" departDelay="0.10" arrival="200.00" arrivalLane="S_out_0" arrivalPos="189.60" arrivalSpeed="9.99" duration="73.00" routeLength="394.03" waitingTime="27.00" waitingCount="1" stopTime="0.00" timeLoss="35.38" rerouteNo="0" devices="vehroute_flow_10_increasing_0_E_left.1 tripinfo_flow_10_increasing_0_E_left.1" vType="car" speedFactor="0.77" vaporized=""/>
    <tripinfo id="flow_5_increasing_0_S_straight.4" depart="199.00" departLane="S_in_0" departPos="135.24" departSpeed="1.68" departDelay="0.00" arrival="228.00" arrivalLane="N_out_0" arrivalPos="189.60" arrivalSpeed="13.26" duration="29.00" routeLength="264.76" waitingTime="0.00" waitingCount="0" stopTime="0.00" timeLoss="9.16" rerouteNo="0" devices="vehroute_flow_5_increasing_0_S_straight.4 tripinfo_flow_5_increasing_0_S_straight.4" vType="container" speedFactor="0.97" vaporized=""/>
    <tripinfo id="flow_13_increasing_0_W_straight.3" depart="152.00" departLane="W_in_0" departPos="65.01" departSpeed="6.58" departDelay="0.49" arrival="239.00" arrivalLane="E_out_0" arrivalPos="189.60" arrivalSpeed="14.97" duration="87.00" routeLength="334.99" waitingTime="55.00" waitingCount="2" stopTime="0.00" timeLoss="65.47" rerouteNo="0" devices="vehroute_flow_13_increasing_0_W_straight.3 tripinfo_flow_13_increasing_0_W_straight.3" vType="moto" speedFactor="1.20" vaporized=""/>
    <tripinfo id="flow_9_increasing_0_E_straight.4" depart="193.00" departLane="E_in_1" departPos="53.32" departSpeed="10.34" departDelay="0.70" arrival="245.00" arrivalLane="W_out_1" arrivalPos="189.60" arrivalSpeed="13.00" duration="52.00" routeLength="346.68" waitingTime="14.00" waitingCount="1" stopTime="0.00" timeLoss="24.99" rerouteNo="0" devices="vehroute_flow_9_increasing_0_E_straight.4 tripinfo_flow_9_increasing_0_E_straight.4" vType="bus" speedFactor="0.95" vaporized=""/>
    <tripinfo id="flow_13_increasing_0_W_straight.4" depart="203.00" departLane="W_in_0" departPos="70.46" departSpeed="10.65" departDelay="0.98" arrival="245.00" arrivalLane="E_out_1" arrivalPos="189.60" arrivalSpeed="11.81" duration="42.00" routeLength="329.54" waitingTime="5.00" waitingCount="1" stopTime="0.00" timeLoss="14.17" rerouteNo="0" devices="vehroute_flow_13_increasing_0_W_straight.4 tripinfo_flow_13_increasing_0_W_straight.4" vType="truck" speedFactor="0.87" vaporized=""/>
    <tripinfo id="flow_9_increasing_0_E_straight.3" depart="145.00" departLane="E_in_0" departPos="86.42" departSpeed="8.41" departDelay="0.77" arrival="246.00" arrivalLane="W_out_0" arrivalPos="189.60" arrivalSpeed="11.19" duration="101.00" routeLength="313.58" waitingTime="61.00" waitingCount="2" stopTime="0.00" timeLoss="73.59" rerouteNo="0" devices="vehroute_flow_9_increasing_0_E_straight.3 tripinfo_flow_9_increasing_0_E_straight.3" vType="truck" speedFactor="0.85" vaporized=""/>
    <tripinfo id="flow_1_increasing_0_N_straight.4" depart="210.00" departLane="N_in_1" departPos="74.07" departSpeed="0.57" departDelay="0.58" arrival="247.00" arrivalLane="S_out_1" arrivalPos="189.60" arrivalSpeed="12.61" duration="37.00" routeLength="325.93" waitingTime="0.00" waitingCount="0" stopTime="0.00" timeLoss="12.11" rerouteNo="0" devices="vehroute_flow_1_increasing_0_N_straight.4 tripinfo_flow_1_increasing_0_N_straight.4" vType="car" speedFactor="0.96" vaporized=""/>
    <tripinfo id="flow_4_increasing_0_N_uturn.1" depart="240.00" departLane="N_in_1" departPos="160.30" departSpeed="13.98" departDelay="0.77" arrival="261.00" arrivalLane="N_out_1" arrivalPos="189.60" arrivalSpeed="13.43" duration="21.00" routeLength="223.57" waitingTime="0.00" waitingCount="0" stopTime="0.00" timeLoss="4.18" rerouteNo="0" devices="vehroute_flow_4_increasing_0_N_uturn.1 tripinfo_flow_4_increasing_0_N_uturn.1" vType="moto" speedFactor="1.03" vaporized=""/>
    <tripinfo id="flow_5_increasing_0_S_straight.5" depart="249.00" departLane="S_in_0" departPos="171.28" departSpeed="11.56" departDelay="0.25" arrival="268.00" arrivalLane="N_out_0" arrivalPos="189.60" arrivalSpeed="12.71" duration="19.00" routeLength="228.72" waitingTime="0.00" waitingCount="0" stopTime="0.00" timeLoss="0.87" rerouteNo="0" devices="vehroute_flow_5_increasing_0_S_straight.5 tripinfo_flow_5_increasing_0_S_straight.5" vType="moto" speedFactor="0.94" vaporized=""/>
    <tripinfo id="flow_6_increasing_0_S_left.2" depart="249.00" departLane="S_in_0" departPos="151.29" departSpeed="4.93" departDelay="0.24" arrival="271.00" arrivalLane="W_out_1" arrivalPos="189.60" arrivalSpeed="14.27" duration="22.00" routeLength="247.26" waitingTime="0.00" waitingCount="0" stopTime="0.00" timeLoss="3.17" rerouteNo="0" devices="vehroute_flow_6_increasing_0_S_left.2 tripinfo_flow_6_increasing_0_S_left.2" vType="moto" speedFactor="1.03" vaporized=""/>
    <tripinfo id="flow_2_increasing_0_N_left.2" depart="244.00" departLane="N_in_1" departPos="129.09" departSpeed="4.74" departDelay="0.10" arrival="274.00" arrivalLane="E_out_1" arrivalPos="189.60" arrivalSpeed="12.38" duration="30.00" routeLength="269.46" waitingTime="0.00" waitingCount="0" stopTime="0.00" timeLoss="7.43" rerouteNo="0" devices="vehroute_flow_2_increasing_0_N_left.2 tripinfo_flow_2_increasing_0_N_left.2" vType="container" speedFactor="0.90" vaporized=""/>
    <tripinfo id="flow_7_increasing_0_S_right.2" depart="244.00" departLane="S_in_1" departPos="19.51" departSpeed="7.87" departDelay="0.10" arrival="276.00" arrivalLane="E_out_0" arrivalPos="189.60" arrivalSpeed="12.91" duration="32.00" routeLength="368.72" waitingTime="0.00" waitingCount="0" stopTime="0.00" timeLoss="3.91" rerouteNo="0" devices="vehroute_flow_7_increasing_0_S_right.2 tripinfo_flow_7_increasing_0_S_right.2" vType="car" speedFactor="0.99" vaporized=""/>
    <tripinfo id="flow_16_increasing_0_W_uturn.1" depart="243.00" departLane="W_in_1" departPos="111.69" departSpeed="6.85" departDelay="0.28" arrival="283.00" arrivalLane="W_out_1" arrivalPos="189.60" arrivalSpeed="15.01" duration="40.00" routeLength="272.18" waitingTime="14.00" waitingCount="1" stopTime="0.00" timeLoss="21.92" rerouteNo="0" devices="vehroute_flow_16_increasing_0_W_uturn.1 tripinfo_flow_16_increasing_0_W_uturn.1" vType="moto" speedFactor="1.14" vaporized=""/>
    <tripinfo id="flow_9_increasing_0_E_straight.5" depart="241.00" departLane="E_in_1" departPos="65.33" departSpeed="12.53" departDelay="0.62" arrival="285.00" arrivalLane="W_out_0" arrivalPos="189.60" arrivalSpeed="13.75" duration="44.00" routeLength="334.67" waitingTime="13.00" waitingCount="1" stopTime="0.00" timeLoss="19.65" rerouteNo="0" devices="vehroute_flow_9_increasing_0_E_straight.5 tripinfo_flow_9_increasing_0_E_straight.5" vType="moto" speedFactor="1.00" vaporized=""/>
    <tripinfo id="flow_15_increasing_0_W_right.2" depart="246.00" departLane="W_in_0" departPos="155.68" departSpeed="8.48" departDelay="0.90" arrival="285.00" arrivalLane="S_out_0" arrivalPos="189.60" arrivalSpeed="12.14" duration="39.00" routeLength="232.55" waitingTime="14.00" waitingCount="1" stopTime="0.00" timeLoss="20.42" rerouteNo="0" devices="vehroute_flow_15_increasing_0_W_right.2 tripinfo_flow_15_increasing_0_W_right.2" vType="moto" speedFactor="0.95" vaporized=""/>
    <tripinfo id="flow_1_increasing_0_N_straight.5" depart="262.00" departLane="N_in_0" departPos="78.09" departSpeed="14.42" departDelay="0.23" arrival="285.00" arrivalLane="S_out_1" arrivalPos="189.60" arrivalSpeed="14.98" duration="23.00" routeLength="321.91" waitingTime="0.00" waitingCount="0" stopTime="0.00" timeLoss="2.36" rerouteNo="0" devices="vehroute_flow_1_increasing_0_N_straight.5 tripinfo_flow_1_increasing_0_N_straight.5" vType="moto" speedFactor="1.14" vaporized=""/>
    <tripinfo id="flow_12_increasing_0_E_uturn.1" depart="247.00" departLane="E_in_1" departPos="2.77" departSpeed="6.78" departDelay="0.70" arrival="288.00" arrivalLane="E_out_1" arrivalPos="189.60" arrivalSpeed="11.60" duration="41.00" routeLength="381.10" waitingTime="0.00" waitingCount="0" stopTime="0.00" timeLoss="8.77" rerouteNo="0" devices="vehroute_flow_12_increasing_0_E_uturn.1 tripinfo_flow_12_increasing_0_E_uturn.1" vType="moto" speedFactor="0.89" vaporized=""/>
    <tripinfo id="flow_17_increasing_300_N_straight.0" depart="300.00" departLane="N_in_0" departPos="87.76" departSpeed="10.92" departDelay="0.00" arrival="324.00" arrivalLane="S_out_0" arrivalPos="189.60" arrivalSpeed="13.87" duration="24.00" routeLength="312.24" waitingTime="0.00" waitingCount="0" stopTime="0.00" timeLoss="1.16" rerouteNo="0" devices="vehroute_flow_17_increasing_300_N_straight.0 tripinfo_flow_17_increasing_300_N_straight.0" vType="moto" speedFactor="1.00" vaporized=""/>
    <tripinfo id="flow_5_increasing_0_S_straight.6" depart="299.00" departLane="S_in_0" departPos="92.42" departSpeed="12.50" departDelay="0.50" arrival="325.00" arrivalLane="N_out_0" arrivalPos="189.60" arrivalSpeed="12.32" duration="26.00" routeLength="307.58" waitingTime="0.00" waitingCount="0" stopTime="0.00" timeLoss="1.44" rerouteNo="0" devices="vehroute_flow_5_increasing_0_S_straight.6 tripinfo_flow_5_increasing_0_S_straight.6" vType="moto" speedFactor="0.90" vaporized=""/>
    <tripinfo id="flow_13_increasing_0_W_straight.5" depart="253.00" departLane="W_in_0" departPos="2.21" departSpeed="13.62" departDelay="0.48" arrival="329.00" arrivalLane="E_out_0" arrivalPos="189.60" arrivalSpeed="14.63" duration="76.00" routeLength="397.79" waitingTime="41.00" waitingCount="1" stopTime="0.00" timeLoss="49.04" rerouteNo="0" devices="vehroute_flow_13_increasing_0_W_straight.5 tripinfo_flow_13_increasing_0_W_straight.5" vType="moto" speedFactor="1.07" vaporized=""/>
    <tripinfo id="flow_9_increasing_0_E_straight.6" depart="289.00" departLane="E_in_1" departPos="155.35" departSpeed="12.29" departDelay="0.54" arrival="330.00" arrivalLane="W_out_0" arrivalPos="189.60" arrivalSpeed="14.28" duration="41.00" routeLength="244.65" waitingTime="17.00" waitingCount="1" stopTime="0.00" timeLoss="23.60" rerouteNo="0" devices="vehroute_flow_9_increasing_0_E_straight.6 tripinfo_flow_9_increasing_0_E_straight.6" vType="moto" speedFactor="1.04" vaporized=""/>
    <tripinfo id="flow_28_increasing_300_E_uturn.0" depart="300.00" departLane="E_in_0" departPos="107.99" departSpeed="1.34" departDelay="0.00" arrival="330.00" arrivalLane="E_out_1" arrivalPos="189.60" arrivalSpeed="14.71" duration="30.00" routeLength="275.88" waitingTime="0.00" waitingCount="0" stopTime="0.00" timeLoss="11.39" rerouteNo="0" devices="vehroute_flow_28_increasing_300_E_uturn.0 tripinfo_flow_28_increasing_300_E_uturn.0" vType="car" speedFactor="1.14" vaporized=""/>
    <tripinfo id="flow_20_increasing_300_N_uturn.0" depart="300.00" departLane="N_in_0" departPos="152.01" departSpeed="5.59" departDelay="0.00" arrival="331.00" arrivalLane="N_out_1" arrivalPos="189.60" arrivalSpeed="12.20" duration="31.00" routeLength="231.86" waitingTime="1.00" waitingCount="1" stopTime="0.00" timeLoss="10.65" rerouteNo="0" devices="vehroute_flow_20_increasing_300_N_uturn.0 tripinfo_flow_20_increasing_300_N_uturn.0" vType="truck" speedFactor="0.90" vaporized=""/>
    <tripinfo id="flow_23_increasing_300_S_right.0" depart="300.00" departLane="S_in_1" departPos="37.04" departSpeed="3.38" departDelay="0.00" arrival="332.00" arrivalLane="E_out_0" arrivalPos="189.60" arrivalSpeed="13.90" duration="32.00" routeLength="351.19" waitingTime="0.00" waitingCount="0" stopTime="0.00" timeLoss="7.41" rerouteNo="0" devices="vehroute_flow_23_increasing_300_S_right.0 tripinfo_flow_23_increasing_300_S_right.0" vType="moto" speedFactor="1.07" vaporized=""/>
    <tripinfo id="flow_22_increasing_300_S_left.0" depart="300.00" departLane="S_in_0" departPos="18.52" departSpeed="1.69" departDelay="0.00" arrival="334.00" arrivalLane="W_out_1" arrivalPos="189.60" arrivalSpeed="14.62" duration="34.00" routeLength="380.03" waitingTime="0.00" waitingCount="0" stopTime="0.00" timeLoss="7.35" rerouteNo="0" devices="vehroute_flow_22_increasing_300_S_left.0 tripinfo_flow_22_increasing_300_S_left.0" vType="moto" speedFactor="1.06" vaporized=""/>
    <tripinfo id="flow_14_increasing_0_W_left.2" depart="249.00" departLane="W_in_0" departPos="0.16" departSpeed="4.37" departDelay="0.24" arrival="335.00" arrivalLane="N_out_1" arrivalPos="189.60" arrivalSpeed="12.47" duration="86.00" routeLength="398.39" waitingTime="43.00" waitingCount="2" stopTime="0.00" timeLoss="53.81" rerouteNo="0" devices="vehroute_flow_14_increasing_0_W_left.2 tripinfo_flow_14_increasing_0_W_left.2" vType="car" speedFactor="0.93" vaporized=""/>