<?xml version="1.0" encoding="UTF-8"?>

<!-- generated on 2025-12-09 05:39:46 by Eclipse SUMO sumo Version 1.18.0
<configuration xmlns:xsi="http://www.w3.org/2001/XMLSchema-instance" xsi:noNamespaceSchemaLocation="http://sumo.dlr.de/xsd/sumoConfiguration.xsd">

    <input>
        <net-file value="nets/120p4k/net.net.xml"/>
        <route-files value="nets/120p4k/route_120p4k.rou.xml"/>
    </input>

    <output>
        <summary-output value="result_baseline_1.2_0.1/summary_ep_10.xml"/>
        <tripinfo-output value="result_baseline_1.2_0.1/tripinfo_ep_10.xml"/>
        <vehroute-output value="result_baseline_1.2_0.1/vehroute_ep_10.xml"/>
    </output>

    <time>
        <begin value="0"/>
        <step-length value="1.0"/>
    </time>

    <processing>
        <scale value="1.2"/>
        <time-to-teleport value="600"/>
    </processing>

    <report>
        <verbose value="true"/>
    </report>

    <traci_server>
        <remote-port value="36145"/>
    </traci_server>

    <gui_only>
        <gui-settings-file value="nets/120p4k/gui-settings.xml"/>
    </gui_only>

</configuration>
-->

<routes xmlns:xsi="http://www.w3.org/2001/XMLSchema-instance" xsi:noNamespaceSchemaLocation="http://sumo.dlr.de/xsd/routes_file.xsd">
    <vehicle id="flow_3_increasing_0_N_right.0" type="moto" depart="0.00" departLane="0" departPos="103.3842" departSpeed="3.8146" speedFactor="1.1088" arrival="24.00">
        <route edges="N_in W_out"/>
    </vehicle>

    <vehicle id="flow_8_increasing_0_S_uturn.0" type="moto" depart="0.00" departLane="0" departPos="120.1072" departSpeed="4.4837" speedFactor="1.0505" arrival="24.00">
        <route edges="S_in S_out"/>
    </vehicle>

    <vehicle id="flow_5_increasing_0_S_straight.0" type="moto" depart="0.00" departLane="1" departPos="107.3659" departSpeed="7.2113" speedFactor="1.1475" arrival="25.00">
        <route edges="S_in N_out"/>
    </vehicle>

    <vehicle id="flow_6_increasing_0_S_left.0" type="moto" depart="0.00" departLane="1" departPos="166.0107" departSpeed="0.7376" speedFactor="0.8806" arrival="25.00">
        <route edges="S_in W_out"/>
    </vehicle>

    <vehicle id="flow_2_increasing_0_N_left.0" type="moto" depart="0.00" departLane="1" departPos="8.2688" departSpeed="8.3291" speedFactor="1.0157" arrival="32.00">
        <route edges="N_in E_out"/>
    </vehicle>

    <vehicle id="flow_4_increasing_0_N_uturn.0" type="moto" depart="0.00" departLane="1" departPos="127.6015" departSpeed="0.0761" speedFactor="0.9074" arrival="32.00">
        <route edges="N_in N_out"/>
    </vehicle>

    <vehicle id="flow_1_increasing_0_N_straight.0" type="truck" depart="0.00" departLane="0" departPos="8.6229" departSpeed="8.5053" speedFactor="0.8588" arrival="35.00">
        <route edges="N_in S_out"/>
    </vehicle>

    <vehicle id="flow_7_increasing_0_S_right.0" type="bus" depart="0.00" departLane="0" departPos="8.759" departSpeed="8.4712" speedFactor="0.8915" arrival="36.00">
        <route edges="S_in E_out"/>
    </vehicle>

    <vehicle id="flow_10_increasing_0_E_left.0" type="car" depart="0.00" departLane="0" departPos="44.8816" departSpeed="8.1909" speedFactor="1.0826" arrival="59.00">
        <route edges="E_in S_out"/>
    </vehicle>

    <vehicle id="flow_9_increasing_0_E_straight.0" type="car" depart="0.00" departLane="0" departPos="168.2937" departSpeed="10.7269" speedFactor="0.9362" arrival="61.00">
        <route edges="E_in W_out"/>
    </vehicle>

    <vehicle id="flow_15_increasing_0_W_right.0" type="moto" depart="0.00" departLane="0" departPos="108.377" departSpeed="2.6276" speedFactor="0.8472" arrival="62.00">
        <route edges="W_in S_out"/>
    </vehicle>

    <vehicle id="flow_14_increasing_0_W_left.0" type="moto" depart="0.00" departLane="1" departPos="182.8773" departSpeed="5.6108" speedFactor="1.0101" arrival="64.00">
        <route edges="W_in N_out"/>
    </vehicle>

    <vehicle id="flow_1_increasing_0_N_straight.1" type="moto" depart="53.00" departLane="1" departPos="121.6549" departSpeed="2.9213" speedFactor="1.1462" arrival="74.00">
        <route edges="N_in S_out"/>
    </vehicle>

    <vehicle id="flow_5_increasing_0_S_straight.1" type="moto" depart="50.00" departLane="1" departPos="58.3562" departSpeed="11.6446" speedFactor="0.8727" arrival="80.00">
        <route edges="S_in N_out"/>
    </vehicle>

    <vehicle id="flow_16_increasing_0_W_uturn.0" type="moto" depart="0.00" departLane="0" departPos="126.6766" departSpeed="11.7148" speedFactor="1.0383" arrival="104.00">
        <route edges="W_in W_out"/>
    </vehicle>

    <vehicle id="flow_12_increasing_0_E_uturn.0" type="moto" depart="0.00" departLane="0" departPos="5.6544" departSpeed="13.7593" speedFactor="1.0348" arrival="106.00">
        <route edges="E_in E_out"/>
    </vehicle>

    <vehicle id="flow_11_increasing_0_E_right.0" type="bus" depart="0.00" departLane="1" departPos="144.9496" departSpeed="4.0187" speedFactor="0.9581" arrival="109.00">
        <route edges="E_in N_out"/>
    </vehicle>

    <vehicle id="flow_13_increasing_0_W_straight.0" type="bus" depart="0.00" departLane="0" departPos="24.5296" departSpeed="3.9683" speedFactor="0.8617" arrival="111.00">
        <route edges="W_in E_out"/>
    </vehicle>

    <vehicle id="flow_5_increasing_0_S_straight.2" type="moto" depart="100.00" departLane="1" departPos="12.6982" departSpeed="12.4143" speedFactor="0.9623" arrival="131.00">
        <route edges="S_in N_out"/>
    </vehicle>

    <vehicle id="flow_1_increasing_0_N_straight.2" type="moto" depart="105.00" departLane="1" departPos="107.5311" departSpeed="1.1094" speedFactor="0.9279" arrival="132.00">
        <route edges="N_in S_out"/>
    </vehicle>

    <vehicle id="flow_9_increasing_0_E_straight.1" type="moto" depart="49.00" departLane="0" departPos="131.129" departSpeed="9.5396" speedFactor="1.1582" arrival="149.00">
        <route edges="E_in W_out"/>
    </vehicle>

    <vehicle id="flow_13_increasing_0_W_straight.1" type="moto" depart="51.00" departLane="1" departPos="31.9285" departSpeed="9.2811" speedFactor="1.1853" arrival="149.00">
        <route edges="W_in E_out"/>
    </vehicle>

    <vehicle id="flow_9_increasing_0_E_straight.2" type="moto" depart="97.00" departLane="1" departPos="52.8684" departSpeed="0.3845" speedFactor="0.9938" arrival="150.00">
        <route edges="E_in W_out"/>
    </vehicle>

    <vehicle id="flow_13_increasing_0_W_straight.2" type="truck" depart="102.00" departLane="1" departPos="59.5081" departSpeed="13.3195" speedFactor="0.9657" arrival="154.00">
        <route edges="W_in E_out"/>
    </vehicle>

    <vehicle id="flow_2_increasing_0_N_left.1" type="moto" depart="122.00" departLane="0" departPos="8.8817" departSpeed="2.8196" speedFactor="1.1228" arrival="154.00">
        <route edges="N_in E_out"/>
    </vehicle>

    <vehicle id="flow_6_increasing_0_S_left.1" type="moto" depart="125.00" departLane="0" departPos="73.8966" departSpeed="7.1953" speedFactor="1.0788" arrival="156.00">
        <route edges="S_in W_out"/>
    </vehicle>

    <vehicle id="flow_3_increasing_0_N_right.1" type="container" depart="131.00" departLane="0" departPos="93.4122" departSpeed="11.7583" speedFactor="0.9146" arrival="160.00">
        <route edges="N_in W_out"/>
    </vehicle>

    <vehicle id="flow_7_increasing_0_S_right.1" type="container" depart="122.00" departLane="1" departPos="66.71" departSpeed="7.8717" speedFactor="0.7845" arrival="166.00">
        <route edges="S_in E_out"/>
    </vehicle>

    <vehicle id="flow_5_increasing_0_S_straight.3" type="moto" depart="150.00" departLane="0" departPos="184.1938" departSpeed="8.583" speedFactor="1.0764" arrival="166.00">
        <route edges="S_in N_out"/>
    </vehicle>

    <vehicle id="flow_1_increasing_0_N_straight.3" type="moto" depart="158.00" departLane="1" departPos="88.4153" departSpeed="1.4924" speedFactor="1.0575" arrival="183.00">
        <route edges="N_in S_out"/>
    </vehicle>

    <vehicle id="flow_15_increasing_0_W_right.1" type="moto" depart="123.00" departLane="1" departPos="128.6773" departSpeed="3.0596" speedFactor="1.0365" arrival="194.00">
        <route edges="W_in S_out"/>
    </vehicle>

    <vehicle id="flow_14_increasing_0_W_left.1" type="moto" depart="125.00" departLane="1" departPos="110.9191" departSpeed="11.9947" speedFactor="1.0453" arrival="194.00">
        <route edges="W_in N_out"/>
    </vehicle>

    <vehicle id="flow_11_increasing_0_E_right.1" type="moto" depart="127.00" departLane="0" departPos="166.0021" departSpeed="1.2818" speedFactor="0.8806" arrival="196.00">
        <route edges="E_in N_out"/>
    </vehicle>

    <vehicle id="flow_10_increasing_0_E_left.1" type="car" depart="127.00" departLane="1" departPos="4.5211" departSpeed="3.9115" speedFactor="0.7706" arrival="200.00">
        <route edges="E_in S_out"/>
    </vehicle>

    <vehicle id="flow_5_increasing_0_S_straight.4" type="container" depart="199.00" departLane="0" departPos="135.2371" departSpeed="1.6769" speedFactor="0.9706" arrival="228.00">
        <route edges="S_in N_out"/>
    </vehicle>

    <vehicle id="flow_13_increasing_0_W_straight.3" type="moto" depart="152.00" departLane="0" departPos="65.0085" departSpeed="6.5773" speedFactor="1.2027" arrival="239.00">
        <route edges="W_in E_out"/>
    </vehicle>

    <vehicle id="flow_9_increasing_0_E_straight.4" type="bus" depart="193.00" departLane="1" departPos="53.3168" departSpeed="10.3403" speedFactor="0.9525" arrival="245.00">
        <route edges="E_in W_out"/>
    </vehicle>

    <vehicle id="flow_13_increasing_0_W_straight.4" type="truck" depart="203.00" departLane="0" departPos="70.4575" departSpeed="10.655" speedFactor="0.8691" arrival="245.00">
        <route edges="W_in E_out"/>
    </vehicle>

    <vehicle id="flow_9_increasing_0_E_straight.3" type="truck" depart="145.00" departLane="0" departPos="86.4153" departSpeed="8.4123" speedFactor="0.8515" arrival="246.00">
        <route edges="E_in W_out"/>
    </vehicle>

    <vehicle id="flow_1_increasing_0_N_straight.4" type="car" depart="210.00" departLane="1" departPos="74.0695" departSpeed="0.5694" speedFactor="0.9617" arrival="247.00">
        <route edges="N_in S_out"/>
    </vehicle>

    <vehicle id="flow_4_increasing_0_N_uturn.1" type="moto" depart="240.00" departLane="1" departPos="160.3044" departSpeed="13.982" speedFactor="1.0283" arrival="261.00">
        <route edges="N_in N_out"/>
    </vehicle>

    <vehicle id="flow_5_increasing_0_S_straight.5" type="moto" depart="249.00" departLane="0" departPos="171.2778" departSpeed="11.5602" speedFactor="0.9374" arrival="268.00">
        <route edges="S_in N_out"/>
    </vehicle>

    <vehicle id="flow_6_increasing_0_S_left.2" type="moto" depart="249.00" departLane="0" departPos="151.2924" departSpeed="4.9345" speedFactor="1.0265" arrival="271.00">
        <route edges="S_in W_out"/>
    </vehicle>

    <vehicle id="flow_2_increasing_0_N_left.2" type="container" depart="244.00" departLane="1" departPos="129.0888" departSpeed="4.7391" speedFactor="0.8985" arrival="274.00">
        <route edges="N_in E_out"/>
    </vehicle>

    <vehicle id="flow_7_increasing_0_S_right.2" type="car" depart="244.00" departLane="1" departPos="19.5053" departSpeed="7.8658" speedFactor="0.9870" arrival="276.00">
        <route edges="S_in E_out"/>
    </vehicle>

    <vehicle id="flow_16_increasing_0_W_uturn.1" type="moto" depart="243.00" departLane="1" departPos="111.6918" departSpeed="6.8465" speedFactor="1.1432" arrival="283.00">
        <route edges="W_in W_out"/>
    </vehicle>

    <vehicle id="flow_9_increasing_0_E_straight.5" type="moto" depart="241.00" departLane="1" departPos="65.3279" departSpeed="12.5263" speedFactor="0.9964" arrival="285.00">
        <route edges="E_in W_out"/>
    </vehicle>

    <vehicle id="flow_15_increasing_0_W_right.2" type="moto" depart="246.00" departLane="0" departPos="155.6805" departSpeed="8.4812" speedFactor="0.9517" arrival="285.00">
        <route edges="W_in S_out"/>
    </vehicle>

    <vehicle id="flow_1_increasing_0_N_straight.5" type="moto" depart="262.00" departLane="0" departPos="78.0885" departSpeed="14.4228" speedFactor="1.1413" arrival="285.00">
        <route edges="N_in S_out"/>
    </vehicle>

    <vehicle id="flow_12_increasing_0_E_uturn.1" type="moto" depart="247.00" departLane="1" departPos="2.773" departSpeed="6.7809" speedFactor="0.8882" arrival="288.00">
        <route edges="E_in E_out"/>
    </vehicle>

    <vehicle id="flow_17_increasing_300_N_straight.0" type="moto" depart="300.00" departLane="0" departPos="87.7633" departSpeed="10.921" speedFactor="1.0021" arrival="324.00">
        <route edges="N_in S_out"/>
    </vehicle>

    <vehicle id="flow_5_increasing_0_S_straight.6" type="moto" depart="299.00" departLane="0" departPos="92.4194" departSpeed="12.497" speedFactor="0.9020" arrival="325.00">
        <route edges="S_in N_out"/>
    </vehicle>

    <vehicle id="flow_13_increasing_0_W_straight.5" type="moto" depart="253.00" departLane="0" departPos="2.2119" departSpeed="13.6219" speedFactor="1.0668" arrival="329.00">
        <route edges="W_in E_out"/>
    </vehicle>

    <vehicle id="flow_9_increasing_0_E_straight.6" type="moto" depart="289.00" departLane="1" departPos="155.3486" departSpeed="12.2945" speedFactor="1.0390" arrival="330.00">
        <route edges="E_in W_out"/>
    </vehicle>

    <vehicle id="flow_28_increasing_300_E_uturn.0" type="car" depart="300.00" departLane="0" departPos="107.9927" departSpeed="1.3449" speedFactor="1.1439" arrival="330.00">
        <route edges="E_in E_out"/>
    </vehicle>

    <vehicle id="flow_20_increasing_300_N_uturn.0" type="truck" depart="300.00" departLane="0" departPos="152.0111" departSpeed="5.5867" speedFactor="0.9040" arrival="331.00">
        <route edges="N_in N_out"/>
    </vehicle>

    <vehicle id="flow_23_increasing_300_S_right.0" type="moto" depart="300.00" departLane="1" departPos="37.0366" departSpeed="3.3816" speedFactor="1.0682" arrival="332.00">
        <route edges="S_in E_out"/>
    </vehicle>

    <vehicle id="flow_22_increasing_300_S_left.0" type="moto" depart="300.00" departLane="0" departPos="18.5245" departSpeed="1.6936" speedFactor="1.0626" arrival="334.00">
        <route edges="S_in W_out"/>
    </vehicle>

    <vehicle id="flow_14_increasing_0_W_left.2" type="car" depart="249.00" departLane="0" departPos="0.1622" departSpeed="4.3705" speedFactor="0.9279" arrival="335.00">
        <route edges="W_in N_out"/>
    </vehicle>

    <vehicle id="flow_19_increasing_300_N_right.0" type="bus" depart="300.00" departLane="0" departPos="61.3216" departSpeed="6.0057" speedFactor="0.9676" arrival="337.00">
        <route edges="N_in W_out"/>
    </vehicle>

    <vehicle id="flow_21_increasing_300_S_straight.0" type="moto" depart="300.00" departLane="0" departPos="24.5526" departSpeed="6.4472" speedFactor="0.8003" arrival="338.00">
        <route edges="S_in N_out"/>
    </vehicle>

    <vehicle id="flow_24_increasing_300_S_uturn.0" type="moto" depart="300.00" departLane="1" departPos="47.4954" departSpeed="3.7149" speedFactor="0.8330" arrival="338.00">
        <route edges="S_in S_out"/>
    </vehicle>

    <vehicle id="flow_18_increasing_300_N_left.0" type="moto" depart="300.00" departLane="1" departPos="39.3431" departSpeed="3.776" speedFactor="0.8162" arrival="341.00">
        <route edges="N_in E_out"/>
    </vehicle>

    <vehicle id="flow_21_increasing_300_S_straight.1" type="car" depart="338.00" departLane="1" departPos="103.4641" departSpeed="3.4093" speedFactor="1.0648" arrival="361.00">
        <route edges="S_in N_out"/>
    </vehicle>

    <vehicle id="flow_17_increasing_300_N_straight.1" type="moto" depart="338.00" departLane="1" departPos="2.2093" departSpeed="7.1454" speedFactor="0.9730" arrival="370.00">
        <route edges="N_in S_out"/>
    </vehicle>

    <vehicle id="flow_26_increasing_300_E_left.0" type="moto" depart="300.00" departLane="1" departPos="41.8299" departSpeed="15.0513" speedFactor="1.1705" arrival="373.00">
        <route edges="E_in S_out"/>
    </vehicle>

    <vehicle id="flow_27_increasing_300_E_right.0" type="moto" depart="300.00" departLane="1" departPos="150.3544" departSpeed="8.825" speedFactor="1.1166" arrival="373.00">
        <route edges="E_in N_out"/>
    </vehicle>

    <vehicle id="flow_29_increasing_300_W_straight.0" type="moto" depart="300.00" departLane="0" departPos="140.508" departSpeed="10.021" speedFactor="0.9618" arrival="376.00">
        <route edges="W_in E_out"/>
    </vehicle>

    <vehicle id="flow_32_increasing_300_W_uturn.0" type="container" depart="300.00" departLane="1" departPos="140.1205" departSpeed="10.5048" speedFactor="0.9532" arrival="383.00">
        <route edges="W_in W_out"/>
    </vehicle>

    <vehicle id="flow_21_increasing_300_S_straight.2" type="car" depart="375.00" departLane="1" departPos="84.7431" departSpeed="3.7515" speedFactor="1.0212" arrival="400.00">
        <route edges="S_in N_out"/>
    </vehicle>

    <vehicle id="flow_17_increasing_300_N_straight.2" type="moto" depart="376.00" departLane="1" departPos="69.3051" departSpeed="12.5685" speedFactor="0.9645" arrival="403.00">
        <route edges="N_in S_out"/>
    </vehicle>

    <vehicle id="flow_19_increasing_300_N_right.1" type="car" depart="393.00" departLane="0" departPos="151.0147" departSpeed="10.1044" speedFactor="1.0323" arrival="413.00">
        <route edges="N_in W_out"/>
    </vehicle>

    <vehicle id="flow_31_increasing_300_W_right.0" type="moto" depart="300.00" departLane="1" departPos="16.1283" departSpeed="8.8937" speedFactor="1.0873" arrival="418.00">
        <route edges="W_in S_out"/>
    </vehicle>

    <vehicle id="flow_22_increasing_300_S_left.1" type="truck" depart="390.00" departLane="1" departPos="150.7313" departSpeed="0.5121" speedFactor="0.9315" arrival="418.00">
        <route edges="S_in W_out"/>
    </vehicle>

    <vehicle id="flow_25_increasing_300_E_straight.1" type="moto" depart="335.00" departLane="1" departPos="74.7856" departSpeed="2.7587" speedFactor="1.0413" arrival="419.00">
        <route edges="E_in W_out"/>
    </vehicle>

    <vehicle id="flow_23_increasing_300_S_right.1" type="truck" depart="391.00" departLane="0" departPos="96.1141" departSpeed="7.3264" speedFactor="0.9032" arrival="419.00">
        <route edges="S_in E_out"/>
    </vehicle>

    <vehicle id="flow_25_increasing_300_E_straight.0" type="moto" depart="300.00" departLane="0" departPos="36.1232" departSpeed="5.7485" speedFactor="0.8878" arrival="422.00">
        <route edges="E_in W_out"/>
    </vehicle>

    <vehicle id="flow_30_increasing_300_W_left.0" type="moto" depart="300.00" departLane="1" departPos="86.4019" departSpeed="1.558" speedFactor="0.9385" arrival="424.00">
        <route edges="W_in N_out"/>
    </vehicle>

    <vehicle id="flow_18_increasing_300_N_left.1" type="moto" depart="390.00" departLane="0" departPos="65.0172" departSpeed="2.7782" speedFactor="0.9897" arrival="427.00">
        <route edges="N_in E_out"/>
    </vehicle>

    <vehicle id="flow_21_increasing_300_S_straight.3" type="moto" depart="412.00" departLane="0" departPos="169.4272" departSpeed="13.8786" speedFactor="1.0039" arrival="430.00">
        <route edges="S_in N_out"/>
    </vehicle>

    <vehicle id="flow_17_increasing_300_N_straight.3" type="truck" depart="414.00" departLane="1" departPos="67.694" departSpeed="0.1592" speedFactor="1.0325" arrival="445.00">
        <route edges="N_in S_out"/>
    </vehicle>

    <vehicle id="flow_29_increasing_300_W_straight.1" type="moto" depart="338.00" departLane="1" departPos="42.0768" departSpeed="14.4777" speedFactor="1.2976" arrival="464.00">
        <route edges="W_in E_out"/>
    </vehicle>

    <vehicle id="flow_29_increasing_300_W_straight.2" type="moto" depart="375.00" departLane="0" departPos="157.0309" departSpeed="11.8019" speedFactor="1.1157" arrival="465.00">
        <route edges="W_in E_out"/>
    </vehicle>

    <vehicle id="flow_25_increasing_300_E_straight.2" type="moto" depart="370.00" departLane="0" departPos="35.6434" departSpeed="2.6942" speedFactor="0.8391" arrival="468.00">
        <route edges="E_in W_out"/>
    </vehicle>

    <vehicle id="flow_26_increasing_300_E_left.1" type="moto" depart="394.00" departLane="1" departPos="64.7255" departSpeed="5.5011" speedFactor="1.0281" arrival="468.00">
        <route edges="E_in S_out"/>
    </vehicle>

    <vehicle id="flow_17_increasing_300_N_straight.4" type="truck" depart="451.00" departLane="0" departPos="123.2337" departSpeed="11.4676" speedFactor="0.9784" arrival="473.00">
        <route edges="N_in S_out"/>
    </vehicle>

    <vehicle id="flow_21_increasing_300_S_straight.4" type="truck" depart="449.00" departLane="0" departPos="109.2982" departSpeed="0.3033" speedFactor="0.8196" arrival="481.00">
        <route edges="S_in N_out"/>
    </vehicle>

    <vehicle id="flow_20_increasing_300_N_uturn.1" type="moto" depart="479.00" departLane="1" departPos="181.5712" departSpeed="6.2639" speedFactor="1.1365" arrival="497.00">
        <route edges="N_in N_out"/>
    </vehicle>

    <vehicle id="flow_22_increasing_300_S_left.2" type="moto" depart="480.00" departLane="0" departPos="27.2886" departSpeed="13.685" speedFactor="1.2552" arrival="506.00">
        <route edges="S_in W_out"/>
    </vehicle>

    <vehicle id="flow_23_increasing_300_S_right.2" type="moto" depart="482.00" departLane="0" departPos="129.443" departSpeed="7.1987" speedFactor="0.9584" arrival="506.00">
        <route edges="S_in E_out"/>
    </vehicle>

    <vehicle id="flow_31_increasing_300_W_right.1" type="moto" depart="388.00" departLane="1" departPos="5.9732" departSpeed="0.5046" speedFactor="1.1571" arrival="507.00">
        <route edges="W_in S_out"/>
    </vehicle>

    <vehicle id="flow_27_increasing_300_E_right.1" type="bus" depart="387.00" departLane="1" departPos="109.1161" departSpeed="3.2126" speedFactor="1.0917" arrival="512.00">
        <route edges="E_in N_out"/>
    </vehicle>

    <vehicle id="flow_25_increasing_300_E_straight.3" type="moto" depart="404.00" departLane="1" departPos="123.8246" departSpeed="4.6068" speedFactor="1.0387" arrival="512.00">
        <route edges="E_in W_out"/>
    </vehicle>

    <vehicle id="flow_30_increasing_300_W_left.1" type="moto" depart="395.00" departLane="0" departPos="29.1188" departSpeed="3.5162" speedFactor="0.8620" arrival="513.00">
        <route edges="W_in N_out"/>
    </vehicle>

    <vehicle id="flow_21_increasing_300_S_straight.5" type="moto" depart="486.00" departLane="1" departPos="113.0073" departSpeed="11.6081" speedFactor="0.9282" arrival="515.00">
        <route edges="S_in N_out"/>
    </vehicle>

    <vehicle id="flow_18_increasing_300_N_left.2" type="car" depart="480.00" departLane="1" departPos="1.4852" departSpeed="5.4756" speedFactor="1.1290" arrival="516.00">
        <route edges="N_in E_out"/>
    </vehicle>

    <vehicle id="flow_19_increasing_300_N_right.2" type="bus" depart="485.00" departLane="1" departPos="41.7947" departSpeed="11.5755" speedFactor="0.9819" arrival="517.00">
        <route edges="N_in W_out"/>
    </vehicle>

    <vehicle id="flow_17_increasing_300_N_straight.5" type="moto" depart="489.00" departLane="0" departPos="15.88" departSpeed="1.7998" speedFactor="1.2148" arrival="517.00">
        <route edges="N_in S_out"/>
    </vehicle>

    <vehicle id="flow_24_increasing_300_S_uturn.1" type="moto" depart="480.00" departLane="1" departPos="47.2903" departSpeed="0.7579" speedFactor="0.8642" arrival="518.00">
        <route edges="S_in S_out"/>
    </vehicle>

    <vehicle id="flow_29_increasing_300_W_straight.3" type="moto" depart="412.00" departLane="1" departPos="173.8291" departSpeed="0.7702" speedFactor="1.1421" arrival="554.00">
        <route edges="W_in E_out"/>
    </vehicle>

    <vehicle id="flow_27_increasing_300_E_right.2" type="moto" depart="473.00" departLane="1" departPos="169.9316" departSpeed="3.391" speedFactor="1.0140" arrival="554.00">
        <route edges="E_in N_out"/>
    </vehicle>

    <vehicle id="flow_25_increasing_300_E_straight.4" type="moto" depart="439.00" departLane="1" departPos="140.3456" departSpeed="11.1799" speedFactor="1.0387" arrival="555.00">
        <route edges="E_in W_out"/>
    </vehicle>

    <vehicle id="flow_29_increasing_300_W_straight.4" type="moto" depart="450.00" departLane="0" departPos="34.8311" departSpeed="5.7612" speedFactor="1.0448" arrival="555.00">
        <route edges="W_in E_out"/>
    </vehicle>

    <vehicle id="flow_21_increasing_300_S_straight.6" type="car" depart="523.00" departLane="0" departPos="22.6696" departSpeed="7.3429" speedFactor="0.9957" arrival="559.00">
        <route edges="S_in N_out"/>
    </vehicle>

    <vehicle id="flow_17_increasing_300_N_straight.6" type="moto" depart="527.00" departLane="0" departPos="44.9537" departSpeed="4.574" speedFactor="0.7657" arrival="564.00">
        <route edges="N_in S_out"/>
    </vehicle>

    <vehicle id="flow_22_increasing_300_S_left.3" type="moto" depart="570.00" departLane="0" departPos="184.144" departSpeed="0.7835" speedFactor="1.0747" arrival="589.00">
        <route edges="S_in W_out"/>
    </vehicle>

    <vehicle id="flow_17_increasing_300_N_straight.7" type="moto" depart="564.00" departLane="0" departPos="27.7577" departSpeed="11.5197" speedFactor="0.9806" arrival="593.00">
        <route edges="N_in S_out"/>
    </vehicle>

    <vehicle id="flow_21_increasing_300_S_straight.7" type="truck" depart="560.00" departLane="1" departPos="0.9771" departSpeed="7.548" speedFactor="0.8815" arrival="595.00">
        <route edges="S_in N_out"/>
    </vehicle>

    <vehicle id="flow_23_increasing_300_S_right.3" type="moto" depart="573.00" departLane="1" departPos="127.7831" departSpeed="8.4812" speedFactor="0.9471" arrival="597.00">
        <route edges="S_in E_out"/>
    </vehicle>

    <vehicle id="flow_31_increasing_300_W_right.2" type="moto" depart="476.00" departLane="0" departPos="131.4461" departSpeed="13.3247" speedFactor="1.0047" arrival="599.00">
        <route edges="W_in S_out"/>
    </vehicle>

    <vehicle id="flow_28_increasing_300_E_uturn.1" type="car" depart="479.00" departLane="0" departPos="14.8665" departSpeed="4.5338" speedFactor="1.0144" arrival="599.00">
        <route edges="E_in E_out"/>
    </vehicle>

    <vehicle id="flow_32_increasing_300_W_uturn.1" type="moto" depart="477.00" departLane="0" departPos="114.5714" departSpeed="4.8709" speedFactor="1.0699" arrival="600.00">
        <route edges="W_in W_out"/>
    </vehicle>

    <vehicle id="flow_25_increasing_300_E_straight.5" type="car" depart="474.00" departLane="0" departPos="57.4616" departSpeed="5.3985" speedFactor="0.9547" arrival="601.00">
        <route edges="E_in W_out"/>
    </vehicle>

    <vehicle id="flow_18_increasing_300_N_left.3" type="moto" depart="569.00" departLane="0" departPos="7.5649" departSpeed="9.8825" speedFactor="0.8756" arrival="606.00">
        <route edges="N_in E_out"/>
    </vehicle>

    <vehicle id="flow_19_increasing_300_N_right.3" type="truck" depart="577.00" departLane="0" departPos="39.6761" departSpeed="7.1278" speedFactor="0.9700" arrival="608.00">
        <route edges="N_in W_out"/>
    </vehicle>

    <vehicle id="flow_39_increasing_600_S_right.0" type="moto" depart="600.00" departLane="1" departPos="176.9698" departSpeed="8.5646" speedFactor="1.0821" arrival="618.00">
        <route edges="S_in E_out"/>
    </vehicle>

    <vehicle id="flow_37_increasing_600_S_straight.0" type="moto" depart="600.00" departLane="1" departPos="163.2859" departSpeed="1.7457" speedFactor="1.2172" arrival="619.00">
        <route edges="S_in N_out"/>
    </vehicle>

    <vehicle id="flow_34_increasing_600_N_left.0" type="car" depart="600.00" departLane="0" departPos="175.8273" departSpeed="1.5671" speedFactor="0.9418" arrival="626.00">
        <route edges="N_in E_out"/>
    </vehicle>

    <vehicle id="flow_35_increasing_600_N_right.0" type="moto" depart="600.00" departLane="0" departPos="116.1788" departSpeed="1.5937" speedFactor="0.8950" arrival="627.00">
        <route edges="N_in W_out"/>
    </vehicle>

    <vehicle id="flow_40_increasing_600_S_uturn.0" type="moto" depart="600.00" departLane="1" departPos="63.275" departSpeed="11.0746" speedFactor="1.1149" arrival="627.00">
        <route edges="S_in S_out"/>
    </vehicle>

    <vehicle id="flow_33_increasing_600_N_straight.0" type="moto" depart="600.00" departLane="0" departPos="15.6422" departSpeed="12.6504" speedFactor="0.9174" arrival="632.00">
        <route edges="N_in S_out"/>
    </vehicle>

    <vehicle id="flow_36_increasing_600_N_uturn.0" type="moto" depart="600.00" departLane="0" departPos="55.9807" departSpeed="0.8031" speedFactor="0.8697" arrival="635.00">
        <route edges="N_in N_out"/>
    </vehicle>

    <vehicle id="flow_38_increasing_600_S_left.0" type="car" depart="600.00" departLane="1" departPos="46.7196" departSpeed="2.5693" speedFactor="0.9712" arrival="635.00">
        <route edges="S_in W_out"/>
    </vehicle>

    <vehicle id="flow_29_increasing_300_W_straight.5" type="moto" depart="487.00" departLane="0" departPos="52.0012" departSpeed="1.882" speedFactor="0.9059" arrival="646.00">
        <route edges="W_in E_out"/>
    </vehicle>

    <vehicle id="flow_26_increasing_300_E_left.2" type="moto" depart="487.00" departLane="0" departPos="72.1694" departSpeed="10.2462" speedFactor="1.0856" arrival="648.00">
        <route edges="E_in S_out"/>
    </vehicle>

    <vehicle id="flow_25_increasing_300_E_straight.6" type="moto" depart="508.00" departLane="1" departPos="11.4261" departSpeed="11.1636" speedFactor="0.8917" arrival="648.00">
        <route edges="E_in W_out"/>
    </vehicle>

    <vehicle id="flow_30_increasing_300_W_left.2" type="bus" depart="490.00" departLane="0" departPos="158.7036" departSpeed="2.6923" speedFactor="0.9554" arrival="655.00">
        <route edges="W_in N_out"/>
    </vehicle>
