<?xml version="1.0" encoding="UTF-8"?>

<!-- generated on 2025-12-08 21:23:29 by Eclipse SUMO sumo Version 1.18.0
<configuration xmlns:xsi="http://www.w3.org/2001/XMLSchema-instance" xsi:noNamespaceSchemaLocation="http://sumo.dlr.de/xsd/sumoConfiguration.xsd">

    <input>
        <net-file value="/workspace/nets/60p2k/net.net.xml"/>
        <route-files value="/workspace/nets/60p2k/route_temp_244_130720908769792_63793894.rou.xml"/>
    </input>

    <output>
        <summary-output value="results/summary_ep_6.xml"/>
        <tripinfo-output value="results/tripinfo_ep_6.xml"/>
        <vehroute-output value="results/vehroute_ep_6.xml"/>
    </output>

    <time>
        <begin value="0"/>
    </time>

    <report>
        <verbose value="true"/>
        <no-step-log value="true"/>
    </report>

    <traci_server>
        <remote-port value="48893"/>
    </traci_server>

    <gui_only>
        <gui-settings-file value="/workspace/nets/60p2k/gui-settings.xml"/>
        <quit-on-end value="true"/>
    </gui_only>

</configuration>
-->

<tripinfos xmlns:xsi="http://www.w3.org/2001/XMLSchema-instance" xsi:noNamespaceSchemaLocation="http://sumo.dlr.de/xsd/tripinfo_file.xsd">
    <tripinfo id="flow_9_phase1_E_straight.0" depart="0.00" departLane="N_in_0" departPos="168.29" departSpeed="10.30" departDelay="0.00" arrival="22.00" arrivalLane="W_out_0" arrivalPos="189.60" arrivalSpeed="11.96" duration="22.00" routeLength="219.94" waitingTime="0.00" waitingCount="0" stopTime="0.00" timeLoss="3.28" rerouteNo="0" devices="vehroute_flow_9_phase1_E_straight.0 tripinfo_flow_9_phase1_E_straight.0" vType="truck" speedFactor="0.90" vaporized=""/>
    <tripinfo id="flow_8_phase1_S_uturn.0" depart="0.00" departLane="S_in_0" departPos="120.11" departSpeed="4.48" departDelay="0.00" arrival="24.00" arrivalLane="S_out_1" arrivalPos="189.60" arrivalSpeed="13.35" duration="24.00" routeLength="263.76" waitingTime="0.00" waitingCount="0" stopTime="0.00" timeLoss="4.86" rerouteNo="0" devices="vehroute_flow_8_phase1_S_uturn.0 tripinfo_flow_8_phase1_S_uturn.0" vType="moto" speedFactor="1.05" vaporized=""/>
    <tripinfo id="flow_15_phase1_W_right.0" depart="0.00" departLane="N_in_1" departPos="153.90" departSpeed="6.73" departDelay="0.00" arrival="24.00" arrivalLane="N_out_1" arrivalPos="189.60" arrivalSpeed="11.78" duration="24.00" routeLength="229.97" waitingTime="0.00" waitingCount="0" stopTime="0.00" timeLoss="3.71" rerouteNo="0" devices="vehroute_flow_15_phase1_W_right.0 tripinfo_flow_15_phase1_W_right.0" vType="moto" speedFactor="0.85" vaporized=""/>
    <tripinfo id="flow_6_phase1_S_left.0" depart="0.00" departLane="S_in_1" departPos="166.01" departSpeed="0.74" departDelay="0.00" arrival="25.00" arrivalLane="W_out_1" arrivalPos="189.60" arrivalSpeed="11.57" duration="25.00" routeLength="232.54" waitingTime="0.00" waitingCount="0" stopTime="0.00" timeLoss="4.36" rerouteNo="0" devices="vehroute_flow_6_phase1_S_left.0 tripinfo_flow_6_phase1_S_left.0" vType="moto" speedFactor="0.88" vaporized=""/>
    <tripinfo id="flow_5_phase1_S_straight.0" depart="0.00" departLane="S_in_1" departPos="107.37" departSpeed="7.21" departDelay="0.00" arrival="26.00" arrivalLane="N_out_1" arrivalPos="189.60" arrivalSpeed="15.40" duration="26.00" routeLength="292.63" waitingTime="0.00" waitingCount="0" stopTime="0.00" timeLoss="6.90" rerouteNo="0" devices="vehroute_flow_5_phase1_S_straight.0 tripinfo_flow_5_phase1_S_straight.0" vType="moto" speedFactor="1.15" vaporized=""/>
    <tripinfo id="flow_14_phase1_W_left.0" depart="0.00" departLane="N_in_1" departPos="42.31" departSpeed="3.71" departDelay="0.00" arrival="30.00" arrivalLane="W_out_0" arrivalPos="189.60" arrivalSpeed="13.70" duration="30.00" routeLength="345.92" waitingTime="0.00" waitingCount="0" stopTime="0.00" timeLoss="4.50" rerouteNo="0" devices="vehroute_flow_14_phase1_W_left.0 tripinfo_flow_14_phase1_W_left.0" vType="moto" speedFactor="1.01" vaporized=""/>
    <tripinfo id="flow_2_phase1_N_left.0" depart="0.00" departLane="N_in_1" departPos="8.27" departSpeed="8.33" departDelay="0.00" arrival="32.00" arrivalLane="E_out_1" arrivalPos="189.60" arrivalSpeed="13.04" duration="32.00" routeLength="390.28" waitingTime="0.00" waitingCount="0" stopTime="0.00" timeLoss="2.82" rerouteNo="0" devices="vehroute_flow_2_phase1_N_left.0 tripinfo_flow_2_phase1_N_left.0" vType="moto" speedFactor="1.02" vaporized=""/>
    <tripinfo id="flow_3_phase1_N_right.0" depart="0.00" departLane="W_in_0" departPos="103.38" departSpeed="3.75" departDelay="0.00" arrival="35.00" arrivalLane="E_out_1" arrivalPos="189.60" arrivalSpeed="14.33" duration="35.00" routeLength="296.62" waitingTime="4.00" waitingCount="1" stopTime="0.00" timeLoss="14.65" rerouteNo="0" devices="vehroute_flow_3_phase1_N_right.0 tripinfo_flow_3_phase1_N_right.0" vType="car" speedFactor="1.09" vaporized=""/>
    <tripinfo id="flow_16_phase1_W_uturn.0" depart="0.00" departLane="E_in_0" departPos="135.67" departSpeed="9.64" departDelay="0.00" arrival="35.00" arrivalLane="N_out_0" arrivalPos="189.60" arrivalSpeed="14.35" duration="35.00" routeLength="252.56" waitingTime="9.00" waitingCount="1" stopTime="0.00" timeLoss="16.10" rerouteNo="0" devices="vehroute_flow_16_phase1_W_uturn.0 tripinfo_flow_16_phase1_W_uturn.0" vType="moto" speedFactor="1.04" vaporized=""/>
    <tripinfo id="flow_4_phase1_N_uturn.0" depart="0.00" departLane="W_in_1" departPos="127.60" departSpeed="0.08" departDelay="0.00" arrival="37.00" arrivalLane="S_out_0" arrivalPos="189.60" arrivalSpeed="12.59" duration="37.00" routeLength="260.63" waitingTime="7.00" waitingCount="1" stopTime="0.00" timeLoss="15.97" rerouteNo="0" devices="vehroute_flow_4_phase1_N_uturn.0 tripinfo_flow_4_phase1_N_uturn.0" vType="car" speedFactor="0.92" vaporized=""/>
    <tripinfo id="flow_12_phase1_E_uturn.0" depart="0.00" departLane="W_in_0" departPos="5.65" departSpeed="13.76" departDelay="0.00" arrival="38.00" arrivalLane="W_out_1" arrivalPos="189.60" arrivalSpeed="14.27" duration="38.00" routeLength="378.22" waitingTime="2.00" waitingCount="1" stopTime="0.00" timeLoss="10.34" rerouteNo="0" devices="vehroute_flow_12_phase1_E_uturn.0 tripinfo_flow_12_phase1_E_uturn.0" vType="moto" speedFactor="1.03" vaporized=""/>
    <tripinfo id="flow_13_phase1_W_straight.1" depart="14.00" departLane="W_in_1" departPos="52.87" departSpeed="0.43" departDelay="0.62" arrival="41.00" arrivalLane="E_out_1" arrivalPos="189.60" arrivalSpeed="15.45" duration="27.00" routeLength="347.13" waitingTime="0.00" waitingCount="0" stopTime="0.00" timeLoss="3.92" rerouteNo="0" devices="vehroute_flow_13_phase1_W_straight.1 tripinfo_flow_13_phase1_W_straight.1" vType="car" speedFactor="1.12" vaporized=""/>
    <tripinfo id="flow_11_phase1_E_right.0" depart="0.00" departLane="E_in_1" departPos="144.95" departSpeed="4.02" departDelay="0.00" arrival="42.00" arrivalLane="N_out_0" arrivalPos="189.60" arrivalSpeed="13.30" duration="42.00" routeLength="243.28" waitingTime="8.00" waitingCount="1" stopTime="0.00" timeLoss="22.52" rerouteNo="0" devices="vehroute_flow_11_phase1_E_right.0 tripinfo_flow_11_phase1_E_right.0" vType="bus" speedFactor="0.96" vaporized=""/>
    <tripinfo id="flow_13_phase1_W_straight.0" depart="0.00" departLane="W_in_0" departPos="77.99" departSpeed="3.79" departDelay="0.00" arrival="47.00" arrivalLane="E_out_0" arrivalPos="189.60" arrivalSpeed="11.12" duration="47.00" routeLength="322.01" waitingTime="1.00" waitingCount="1" stopTime="0.00" timeLoss="18.62" rerouteNo="0" devices="vehroute_flow_13_phase1_W_straight.0 tripinfo_flow_13_phase1_W_straight.0" vType="container" speedFactor="0.82" vaporized=""/>
    <tripinfo id="flow_5_phase1_S_straight.1" depart="14.00" departLane="S_in_1" departPos="121.65" departSpeed="2.93" departDelay="0.77" arrival="49.00" arrivalLane="N_out_0" arrivalPos="189.60" arrivalSpeed="15.27" duration="35.00" routeLength="278.35" waitingTime="7.00" waitingCount="1" stopTime="0.00" timeLoss="17.24" rerouteNo="0" devices="vehroute_flow_5_phase1_S_straight.1 tripinfo_flow_5_phase1_S_straight.1" vType="moto" speedFactor="1.19" vaporized=""/>
    <tripinfo id="flow_10_phase1_E_left.0" depart="0.00" departLane="E_in_0" departPos="44.88" departSpeed="7.69" departDelay="0.00" arrival="52.00" arrivalLane="S_out_1" arrivalPos="189.60" arrivalSpeed="13.92" duration="52.00" routeLength="353.67" waitingTime="9.00" waitingCount="2" stopTime="0.00" timeLoss="25.36" rerouteNo="0" devices="vehroute_flow_10_phase1_E_left.0 tripinfo_flow_10_phase1_E_left.0" vType="truck" speedFactor="1.02" vaporized=""/>
    <tripinfo id="flow_9_phase1_E_straight.1" depart="13.00" departLane="N_in_1" departPos="58.36" departSpeed="11.07" departDelay="0.12" arrival="52.00" arrivalLane="W_out_0" arrivalPos="189.60" arrivalSpeed="15.72" duration="39.00" routeLength="329.87" waitingTime="6.00" waitingCount="1" stopTime="0.00" timeLoss="17.38" rerouteNo="0" devices="vehroute_flow_9_phase1_E_straight.1 tripinfo_flow_9_phase1_E_straight.1" vType="moto" speedFactor="1.16" vaporized=""/>
    <tripinfo id="flow_1_phase1_N_straight.0" depart="0.00" departLane="N_in_0" departPos="8.62" departSpeed="8.51" departDelay="0.00" arrival="55.00" arrivalLane="S_out_0" arrivalPos="189.60" arrivalSpeed="11.35" duration="55.00" routeLength="391.38" waitingTime="11.00" waitingCount="1" stopTime="0.00" timeLoss="22.22" rerouteNo="0" devices="vehroute_flow_1_phase1_N_straight.0 tripinfo_flow_1_phase1_N_straight.0" vType="bus" speedFactor="0.86" vaporized=""/>
    <tripinfo id="flow_1_phase1_N_straight.1" depart="14.00" departLane="N_in_1" departPos="31.93" departSpeed="7.04" departDelay="0.48" arrival="55.00" arrivalLane="S_out_1" arrivalPos="189.60" arrivalSpeed="12.03" duration="41.00" routeLength="368.07" waitingTime="0.00" waitingCount="0" stopTime="0.00" timeLoss="10.45" rerouteNo="0" devices="vehroute_flow_1_phase1_N_straight.1 tripinfo_flow_1_phase1_N_straight.1" vType="moto" speedFactor="0.87" vaporized=""/>
    <tripinfo id="flow_6_phase1_S_left.1" depart="34.00" departLane="S_in_1" departPos="185.21" departSpeed="4.39" departDelay="0.55" arrival="56.00" arrivalLane="W_out_1" arrivalPos="189.60" arrivalSpeed="13.37" duration="22.00" routeLength="213.34" waitingTime="2.00" waitingCount="1" stopTime="0.00" timeLoss="5.92" rerouteNo="0" devices="vehroute_flow_6_phase1_S_left.1 tripinfo_flow_6_phase1_S_left.1" vType="moto" speedFactor="1.05" vaporized=""/>
    <tripinfo id="flow_9_phase1_E_straight.2" depart="26.00" departLane="N_in_1" departPos="12.70" departSpeed="12.82" departDelay="0.25" arrival="58.00" arrivalLane="W_out_0" arrivalPos="189.60" arrivalSpeed="12.63" duration="32.00" routeLength="375.53" waitingTime="0.00" waitingCount="0" stopTime="0.00" timeLoss="3.72" rerouteNo="0" devices="vehroute_flow_9_phase1_E_straight.2 tripinfo_flow_9_phase1_E_straight.2" vType="moto" speedFactor="0.99" vaporized=""/>
    <tripinfo id="flow_5_phase1_S_straight.2" depart="27.00" departLane="S_in_1" departPos="59.51" departSpeed="13.27" departDelay="0.54" arrival="59.00" arrivalLane="N_out_0" arrivalPos="189.60" arrivalSpeed="13.20" duration="32.00" routeLength="340.49" waitingTime="0.00" waitingCount="0" stopTime="0.00" timeLoss="6.01" rerouteNo="0" devices="vehroute_flow_5_phase1_S_straight.2 tripinfo_flow_5_phase1_S_straight.2" vType="moto" speedFactor="0.96" vaporized=""/>
    <tripinfo id="flow_11_phase1_E_right.1" depart="33.00" departLane="E_in_0" departPos="73.90" departSpeed="8.86" departDelay="0.51" arrival="60.00" arrivalLane="N_out_0" arrivalPos="189.60" arrivalSpeed="13.98" duration="27.00" routeLength="314.33" waitingTime="0.00" waitingCount="0" stopTime="0.00" timeLoss="4.49" rerouteNo="0" devices="vehroute_flow_11_phase1_E_right.1 tripinfo_flow_11_phase1_E_right.1" vType="moto" speedFactor="1.04" vaporized=""/>
    <tripinfo id="flow_15_phase1_W_right.1" depart="33.00" departLane="N_in_1" departPos="110.92" departSpeed="12.38" departDelay="0.16" arrival="60.00" arrivalLane="N_out_1" arrivalPos="189.60" arrivalSpeed="14.89" duration="27.00" routeLength="272.95" waitingTime="3.00" waitingCount="1" stopTime="0.00" timeLoss="7.66" rerouteNo="0" devices="vehroute_flow_15_phase1_W_right.1 tripinfo_flow_15_phase1_W_right.1" vType="moto" speedFactor="1.08" vaporized=""/>
    <tripinfo id="flow_3_phase1_N_right.1" depart="35.00" departLane="W_in_1" departPos="175.36" departSpeed="7.65" departDelay="0.82" arrival="64.00" arrivalLane="E_out_0" arrivalPos="189.60" arrivalSpeed="11.18" duration="29.00" routeLength="224.64" waitingTime="5.00" waitingCount="1" stopTime="0.00" timeLoss="10.57" rerouteNo="0" devices="vehroute_flow_3_phase1_N_right.1 tripinfo_flow_3_phase1_N_right.1" vType="moto" speedFactor="0.88" vaporized=""/>
    <tripinfo id="flow_13_phase1_W_straight.3" depart="41.00" departLane="W_in_0" departPos="167.23" departSpeed="2.06" departDelay="0.85" arrival="64.00" arrivalLane="E_out_1" arrivalPos="189.60" arrivalSpeed="13.36" duration="23.00" routeLength="232.77" waitingTime="0.00" waitingCount="0" stopTime="0.00" timeLoss="6.46" rerouteNo="0" devices="vehroute_flow_13_phase1_W_straight.3 tripinfo_flow_13_phase1_W_straight.3" vType="car" speedFactor="1.05" vaporized=""/>
    <tripinfo id="flow_13_phase1_W_straight.2" depart="27.00" departLane="W_in_1" departPos="107.53" departSpeed="1.15" departDelay="0.23" arrival="68.00" arrivalLane="E_out_0" arrivalPos="189.60" arrivalSpeed="13.04" duration="41.00" routeLength="292.47" waitingTime="0.00" waitingCount="0" stopTime="0.00" timeLoss="18.69" rerouteNo="0" devices="vehroute_flow_13_phase1_W_straight.2 tripinfo_flow_13_phase1_W_straight.2" vType="bus" speedFactor="0.97" vaporized=""/>
    <tripinfo id="flow_5_phase1_S_straight.3" depart="40.00" departLane="S_in_0" departPos="148.08" departSpeed="9.90" departDelay="0.31" arrival="75.00" arrivalLane="N_out_0" arrivalPos="189.60" arrivalSpeed="14.66" duration="35.00" routeLength="251.92" waitingTime="10.00" waitingCount="1" stopTime="0.00" timeLoss="17.38" rerouteNo="0" devices="vehroute_flow_5_phase1_S_straight.3 tripinfo_flow_5_phase1_S_straight.3" vType="moto" speedFactor="1.08" vaporized=""/>
    <tripinfo id="flow_1_phase1_N_straight.2" depart="28.00" departLane="N_in_0" departPos="8.88" departSpeed="2.33" departDelay="0.97" arrival="76.00" arrivalLane="S_out_0" arrivalPos="189.60" arrivalSpeed="12.71" duration="48.00" routeLength="391.12" waitingTime="9.00" waitingCount="1" stopTime="0.00" timeLoss="17.28" rerouteNo="0" devices="vehroute_flow_1_phase1_N_straight.2 tripinfo_flow_1_phase1_N_straight.2" vType="moto" speedFactor="0.93" vaporized=""/>
    <tripinfo id="flow_5_phase1_S_straight.4" depart="53.00" departLane="S_in_0" departPos="160.30" departSpeed="9.11" departDelay="0.08" arrival="76.00" arrivalLane="N_out_1" arrivalPos="189.60" arrivalSpeed="13.34" duration="23.00" routeLength="239.70" waitingTime="0.00" waitingCount="0" stopTime="0.00" timeLoss="4.26" rerouteNo="0" devices="vehroute_flow_5_phase1_S_straight.4 tripinfo_flow_5_phase1_S_straight.4" vType="container" speedFactor="0.97" vaporized=""/>
    <tripinfo id="flow_7_phase1_S_right.0" depart="0.00" departLane="E_in_0" departPos="8.76" departSpeed="8.07" departDelay="0.00" arrival="77.00" arrivalLane="E_out_0" arrivalPos="189.60" arrivalSpeed="11.47" duration="77.00" routeLength="375.11" waitingTime="15.00" waitingCount="4" stopTime="0.00" timeLoss="43.44" rerouteNo="0" devices="vehroute_flow_7_phase1_S_right.0 tripinfo_flow_7_phase1_S_right.0" vType="container" speedFactor="0.85" vaporized=""/>
    <tripinfo id="flow_2_phase1_N_left.1" depart="33.00" departLane="N_in_1" departPos="66.71" departSpeed="11.27" departDelay="0.32" arrival="79.00" arrivalLane="E_out_1" arrivalPos="189.60" arrivalSpeed="14.65" duration="46.00" routeLength="331.84" waitingTime="13.00" waitingCount="2" stopTime="0.00" timeLoss="23.37" rerouteNo="0" devices="vehroute_flow_2_phase1_N_left.1 tripinfo_flow_2_phase1_N_left.1" vType="moto" speedFactor="1.12" vaporized=""/>
    <tripinfo id="flow_1_phase1_N_straight.3" depart="41.00" departLane="N_in_1" departPos="23.57" departSpeed="11.40" departDelay="0.45" arrival="80.00" arrivalLane="S_out_1" arrivalPos="189.60" arrivalSpeed="15.42" duration="39.00" routeLength="376.43" waitingTime="4.00" waitingCount="2" stopTime="0.00" timeLoss="15.25" rerouteNo="0" devices="vehroute_flow_1_phase1_N_straight.3 tripinfo_flow_1_phase1_N_straight.3" vType="moto" speedFactor="1.20" vaporized=""/>
    <tripinfo id="flow_14_phase1_W_left.1" depart="35.00" departLane="N_in_0" departPos="56.18" departSpeed="5.40" departDelay="0.53" arrival="84.00" arrivalLane="W_out_0" arrivalPos="189.60" arrivalSpeed="12.34" duration="49.00" routeLength="332.05" waitingTime="6.00" waitingCount="1" stopTime="0.00" timeLoss="21.68" rerouteNo="0" devices="vehroute_flow_14_phase1_W_left.1 tripinfo_flow_14_phase1_W_left.1" vType="container" speedFactor="0.91" vaporized=""/>
    <tripinfo id="flow_1_phase1_N_straight.4" depart="55.00" departLane="N_in_1" departPos="111.69" departSpeed="5.51" departDelay="0.94" arrival="86.00" arrivalLane="S_out_1" arrivalPos="189.60" arrivalSpeed="12.63" duration="31.00" routeLength="288.31" waitingTime="0.00" waitingCount="0" stopTime="0.00" timeLoss="8.32" rerouteNo="0" devices="vehroute_flow_1_phase1_N_straight.4 tripinfo_flow_1_phase1_N_straight.4" vType="truck" speedFactor="0.92" vaporized=""/>
    <tripinfo id="flow_11_phase1_E_right.2" depart="65.00" departLane="E_in_0" departPos="155.68" departSpeed="10.19" departDelay="0.02" arrival="86.00" arrivalLane="N_out_0" arrivalPos="189.60" arrivalSpeed="15.23" duration="21.00" routeLength="232.55" waitingTime="0.00" waitingCount="0" stopTime="0.00" timeLoss="4.74" rerouteNo="0" devices="vehroute_flow_11_phase1_E_right.2 tripinfo_flow_11_phase1_E_right.2" vType="moto" speedFactor="1.14" vaporized=""/>
    <tripinfo id="flow_3_phase1_N_right.2" depart="69.00" departLane="W_in_1" departPos="152.01" departSpeed="5.63" departDelay="0.63" arrival="92.00" arrivalLane="E_out_1" arrivalPos="189.60" arrivalSpeed="15.00" duration="23.00" routeLength="247.99" waitingTime="0.00" waitingCount="0" stopTime="0.00" timeLoss="6.30" rerouteNo="0" devices="vehroute_flow_3_phase1_N_right.2 tripinfo_flow_3_phase1_N_right.2" vType="moto" speedFactor="1.10" vaporized=""/>
    <tripinfo id="flow_13_phase1_W_straight.4" depart="54.00" departLane="W_in_1" departPos="65.33" departSpeed="10.93" departDelay="0.46" arrival="93.00" arrivalLane="E_out_0" arrivalPos="189.60" arrivalSpeed="11.61" duration="39.00" routeLength="334.67" waitingTime="2.00" waitingCount="1" stopTime="0.00" timeLoss="10.63" rerouteNo="0" devices="vehroute_flow_13_phase1_W_straight.4 tripinfo_flow_13_phase1_W_straight.4" vType="bus" speedFactor="0.87" vaporized=""/>
    <tripinfo id="flow_4_phase1_N_uturn.1" depart="67.00" departLane="W_in_1" departPos="174.17" departSpeed="8.58" departDelay="0.96" arrival="93.00" arrivalLane="S_out_0" arrivalPos="189.60" arrivalSpeed="12.98" duration="26.00" routeLength="214.06" waitingTime="4.00" waitingCount="1" stopTime="0.00" timeLoss="8.38" rerouteNo="0" devices="vehroute_flow_4_phase1_N_uturn.1 tripinfo_flow_4_phase1_N_uturn.1" vType="moto" speedFactor="0.94" vaporized=""/>
    <tripinfo id="flow_13_phase1_W_straight.5" depart="67.00" departLane="W_in_0" departPos="87.76" departSpeed="12.44" departDelay="0.08" arrival="95.00" arrivalLane="E_out_0" arrivalPos="189.60" arrivalSpeed="14.64" duration="28.00" routeLength="312.24" waitingTime="0.00" waitingCount="0" stopTime="0.00" timeLoss="7.75" rerouteNo="0" devices="vehroute_flow_13_phase1_W_straight.5 tripinfo_flow_13_phase1_W_straight.5" vType="moto" speedFactor="1.14" vaporized=""/>
    <tripinfo id="flow_16_phase1_W_uturn.1" depart="67.00" departLane="E_in_1" departPos="39.34" departSpeed="4.81" departDelay="0.80" arrival="96.00" arrivalLane="N_out_0" arrivalPos="189.60" arrivalSpeed="13.80" duration="29.00" routeLength="348.89" waitingTime="0.00" waitingCount="0" stopTime="0.00" timeLoss="3.77" rerouteNo="0" devices="vehroute_flow_16_phase1_W_uturn.1 tripinfo_flow_16_phase1_W_uturn.1" vType="moto" speedFactor="1.04" vaporized=""/>
    <tripinfo id="flow_5_phase1_S_straight.5" depart="67.00" departLane="S_in_1" departPos="172.37" departSpeed="6.94" departDelay="0.85" arrival="101.00" arrivalLane="N_out_0" arrivalPos="189.60" arrivalSpeed="12.99" duration="34.00" routeLength="227.63" waitingTime="12.00" waitingCount="1" stopTime="0.00" timeLoss="17.42" rerouteNo="0" devices="vehroute_flow_5_phase1_S_straight.5 tripinfo_flow_5_phase1_S_straight.5" vType="moto" speedFactor="1.03" vaporized=""/>
    <tripinfo id="flow_2_phase1_N_left.2" depart="66.00" departLane="N_in_1" departPos="2.77" departSpeed="8.39" departDelay="0.64" arrival="102.00" arrivalLane="E_out_1" arrivalPos="189.60" arrivalSpeed="15.02" duration="36.00" routeLength="395.78" waitingTime="3.00" waitingCount="1" stopTime="0.00" timeLoss="9.58" rerouteNo="0" devices="vehroute_flow_2_phase1_N_left.2 tripinfo_flow_2_phase1_N_left.2" vType="emergency" speedFactor="1.10" vaporized=""/>
    <tripinfo id="flow_1_phase1_N_straight.5" depart="68.00" departLane="N_in_0" departPos="137.11" departSpeed="5.60" departDelay="0.42" arrival="103.00" arrivalLane="S_out_1" arrivalPos="189.60" arrivalSpeed="11.86" duration="35.00" routeLength="262.89" waitingTime="6.00" waitingCount="1" stopTime="0.00" timeLoss="13.80" rerouteNo="0" devices="vehroute_flow_1_phase1_N_straight.5 tripinfo_flow_1_phase1_N_straight.5" vType="moto" speedFactor="0.90" vaporized=""/>
    <tripinfo id="flow_7_phase1_S_right.1" depart="33.00" departLane="E_in_1" departPos="128.68" departSpeed="2.32" departDelay="0.51" arrival="105.00" arrivalLane="E_out_0" arrivalPos="189.60" arrivalSpeed="10.48" duration="72.00" routeLength="255.19" waitingTime="21.00" waitingCount="5" stopTime="0.00" timeLoss="47.58" rerouteNo="0" devices="vehroute_flow_7_phase1_S_right.1 tripinfo_flow_7_phase1_S_right.1" vType="container" speedFactor="0.78" vaporized=""/>
    <tripinfo id="flow_15_phase1_W_right.2" depart="66.00" departLane="N_in_0" departPos="64.25" departSpeed="5.81" departDelay="0.32" arrival="105.00" arrivalLane="N_out_1" arrivalPos="189.60" arrivalSpeed="12.24" duration="39.00" routeLength="319.62" waitingTime="4.00" waitingCount="1" stopTime="0.00" timeLoss="10.81" rerouteNo="0" devices="vehroute_flow_15_phase1_W_right.2 tripinfo_flow_15_phase1_W_right.2" vType="moto" speedFactor="0.89" vaporized=""/>
    <tripinfo id="flow_9_phase1_E_straight.3" depart="39.00" departLane="N_in_0" departPos="19.25" departSpeed="4.06" departDelay="0.37" arrival="106.00" arrivalLane="W_out_0" arrivalPos="189.60" arrivalSpeed="11.21" duration="67.00" routeLength="368.98" waitingTime="17.00" waitingCount="2" stopTime="0.00" timeLoss="34.65" rerouteNo="0" devices="vehroute_flow_9_phase1_E_straight.3 tripinfo_flow_9_phase1_E_straight.3" vType="bus" speedFactor="0.85" vaporized=""/>
    <tripinfo id="flow_9_phase1_E_straight.4" depart="52.00" departLane="N_in_0" departPos="8.08" departSpeed="6.36" departDelay="0.49" arrival="108.00" arrivalLane="W_out_0" arrivalPos="189.60" arrivalSpeed="12.64" duration="56.00" routeLength="380.15" waitingTime="13.00" waitingCount="1" stopTime="0.00" timeLoss="26.35" rerouteNo="0" devices="vehroute_flow_9_phase1_E_straight.4 tripinfo_flow_9_phase1_E_straight.4" vType="bus" speedFactor="0.95" vaporized=""/>
    <tripinfo id="flow_6_phase1_S_left.2" depart="67.00" departLane="S_in_0" departPos="161.41" departSpeed="1.42" departDelay="0.10" arrival="111.00" arrivalLane="W_out_1" arrivalPos="189.60" arrivalSpeed="12.01" duration="44.00" routeLength="237.14" waitingTime="4.00" waitingCount="1" stopTime="0.00" timeLoss="23.64" rerouteNo="0" devices="vehroute_flow_6_phase1_S_left.2 tripinfo_flow_6_phase1_S_left.2" vType="truck" speedFactor="0.89" vaporized=""/>
    <tripinfo id="flow_8_phase1_S_uturn.1" depart="66.00" departLane="S_in_0" departPos="91.52" departSpeed="11.59" departDelay="0.07" arrival="113.00" arrivalLane="S_out_1" arrivalPos="189.60" arrivalSpeed="12.97" duration="47.00" routeLength="292.35" waitingTime="3.00" waitingCount="1" stopTime="0.00" timeLoss="23.11" rerouteNo="0" devices="vehroute_flow_8_phase1_S_uturn.1 tripinfo_flow_8_phase1_S_uturn.1" vType="truck" speedFactor="0.94" vaporized=""/>
    <tripinfo id="flow_12_phase1_E_uturn.1" depart="66.00" departLane="W_in_1" departPos="65.57" departSpeed="2.22" departDelay="0.19" arrival="114.00" arrivalLane="W_out_1" arrivalPos="189.60" arrivalSpeed="13.06" duration="48.00" routeLength="318.30" waitingTime="16.00" waitingCount="1" stopTime="0.00" timeLoss="22.89" rerouteNo="0" devices="vehroute_flow_12_phase1_E_uturn.1 tripinfo_flow_12_phase1_E_uturn.1" vType="moto" speedFactor="0.95" vaporized=""/>
    <tripinfo id="flow_13_phase1_W_straight.6" depart="81.00" departLane="W_in_1" departPos="47.50" departSpeed="4.35" departDelay="0.70" arrival="115.00" arrivalLane="E_out_0" arrivalPos="189.60" arrivalSpeed="12.38" duration="34.00" routeLength="352.50" waitingTime="1.00" waitingCount="1" stopTime="0.00" timeLoss="7.83" rerouteNo="0" devices="vehroute_flow_13_phase1_W_straight.6 tripinfo_flow_13_phase1_W_straight.6" vType="car" speedFactor="0.98" vaporized=""/>
    <tripinfo id="flow_13_phase1_W_straight.7" depart="94.00" departLane="W_in_0" departPos="107.99" departSpeed="0.94" departDelay="0.31" arrival="125.00" arrivalLane="E_out_0" arrivalPos="189.60" arrivalSpeed="10.04" duration="31.00" routeLength="292.01" waitingTime="0.00" waitingCount="0" stopTime="0.00" timeLoss="4.04" rerouteNo="0" devices="vehroute_flow_13_phase1_W_straight.7 tripinfo_flow_13_phase1_W_straight.7" vType="moto" speedFactor="0.80" vaporized=""/>
    <tripinfo id="flow_9_phase1_E_straight.5" depart="65.00" departLane="N_in_1" departPos="19.51" departSpeed="7.94" departDelay="0.62" arrival="126.00" arrivalLane="W_out_0" arrivalPos="189.60" arrivalSpeed="13.76" duration="61.00" routeLength="368.72" waitingTime="21.00" waitingCount="2" stopTime="0.00" timeLoss="34.02" rerouteNo="0" devices="vehroute_flow_9_phase1_E_straight.5 tripinfo_flow_9_phase1_E_straight.5" vType="moto" speedFactor="1.00" vaporized=""/>
    <tripinfo id="flow_5_phase1_S_straight.6" depart="80.00" departLane="S_in_1" departPos="37.04" departSpeed="3.48" departDelay="0.62" arrival="128.00" arrivalLane="N_out_0" arrivalPos="189.60" arrivalSpeed="15.00" duration="48.00" routeLength="362.96" waitingTime="11.00" waitingCount="1" stopTime="0.00" timeLoss="23.90" rerouteNo="0" devices="vehroute_flow_5_phase1_S_straight.6 tripinfo_flow_5_phase1_S_straight.6" vType="moto" speedFactor="1.10" vaporized=""/>
    <tripinfo id="flow_14_phase1_W_left.2" depart="69.00" departLane="N_in_0" departPos="24.55" departSpeed="7.23" departDelay="0.06" arrival="131.00" arrivalLane="W_out_0" arrivalPos="189.60" arrivalSpeed="11.49" duration="62.00" routeLength="363.68" waitingTime="14.00" waitingCount="2" stopTime="0.00" timeLoss="31.52" rerouteNo="0" devices="vehroute_flow_14_phase1_W_left.2 tripinfo_flow_14_phase1_W_left.2" vType="car" speedFactor="0.90" vaporized=""/>
    <tripinfo id="flow_10_phase1_E_left.1" depart="34.00" departLane="E_in_0" departPos="19.85" departSpeed="3.23" departDelay="0.50" arrival="132.00" arrivalLane="S_out_0" arrivalPos="189.60" arrivalSpeed="9.95" duration="98.00" routeLength="378.70" waitingTime="28.00" waitingCount="4" stopTime="0.00" timeLoss="60.98" rerouteNo="0" devices="vehroute_flow_10_phase1_E_left.1 tripinfo_flow_10_phase1_E_left.1" vType="truck" speedFactor="0.77" vaporized=""/>
    <tripinfo id="flow_9_phase1_E_straight.6" depart="78.00" departLane="N_in_0" departPos="18.52" departSpeed="1.63" departDelay="0.74" arrival="132.00" arrivalLane="W_out_0" arrivalPos="189.60" arrivalSpeed="13.81" duration="54.00" routeLength="369.71" waitingTime="12.00" waitingCount="1" stopTime="0.00" timeLoss="27.08" rerouteNo="0" devices="vehroute_flow_9_phase1_E_straight.6 tripinfo_flow_9_phase1_E_straight.6" vType="moto" speedFactor="1.02" vaporized=""/>
    <tripinfo id="flow_1_phase1_N_straight.6" depart="82.00" departLane="N_in_0" departPos="36.12" departSpeed="6.34" departDelay="0.90" arrival="132.00" arrivalLane="S_out_1" arrivalPos="189.60" arrivalSpeed="13.42" duration="50.00" routeLength="363.88" waitingTime="12.00" waitingCount="1" stopTime="0.00" timeLoss="23.26" rerouteNo="0" devices="vehroute_flow_1_phase1_N_straight.6 tripinfo_flow_1_phase1_N_straight.6" vType="car" speedFactor="0.98" vaporized=""/>
    <tripinfo id="flow_6_phase1_S_left.3" depart="101.00" departLane="S_in_1" departPos="2.21" departSpeed="8.06" departDelay="0.64" arrival="133.00" arrivalLane="W_out_1" arrivalPos="189.60" arrivalSpeed="14.09" duration="32.00" routeLength="396.34" waitingTime="0.00" waitingCount="0" stopTime="0.00" timeLoss="4.94" rerouteNo="0" devices="vehroute_flow_6_phase1_S_left.3 tripinfo_flow_6_phase1_S_left.3" vType="car" speedFactor="1.10" vaporized=""/>
    <tripinfo id="flow_9_phase1_E_straight.7" depart="91.00" departLane="N_in_1" departPos="41.83" departSpeed="13.19" departDelay="0.86" arrival="134.00" arrivalLane="W_out_0" arrivalPos="189.60" arrivalSpeed="13.25" duration="43.00" routeLength="346.40" waitingTime="7.00" waitingCount="1" stopTime="0.00" timeLoss="16.70" rerouteNo="0" devices="vehroute_flow_9_phase1_E_straight.7 tripinfo_flow_9_phase1_E_straight.7" vType="moto" speedFactor="1.01" vaporized=""/>
    <tripinfo id="flow_5_phase1_S_straight.7" depart="93.00" departLane="S_in_1" departPos="150.35" departSpeed="7.14" departDelay="0.39" arrival="134.00" arrivalLane="N_out_1" arrivalPos="189.60" arrivalSpeed="12.12" duration="41.00" routeLength="249.65" waitingTime="8.00" waitingCount="1" stopTime="0.00" timeLoss="20.90" rerouteNo="0" devices="vehroute_flow_5_phase1_S_straight.7 tripinfo_flow_5_phase1_S_straight.7" vType="bus" speedFactor="0.90" vaporized=""/>