<?xml version="1.0" encoding="UTF-8"?>

<!-- generated on 2025-12-08 21:27:29 by Eclipse SUMO sumo Version 1.18.0
<configuration xmlns:xsi="http://www.w3.org/2001/XMLSchema-instance" xsi:noNamespaceSchemaLocation="http://sumo.dlr.de/xsd/sumoConfiguration.xsd">

    <input>
        <net-file value="/workspace/nets/60p2k/net.net.xml"/>
        <route-files value="/workspace/nets/60p2k/route_temp_244_130720908769792_63793894.rou.xml"/>
    </input>

    <output>
        <summary-output value="results/summary_ep_15.xml"/>
        <tripinfo-output value="results/tripinfo_ep_15.xml"/>
        <vehroute-output value="results/vehroute_ep_15.xml"/>
    </output>

    <time>
        <begin value="0"/>
    </time>

    <report>
        <verbose value="true"/>
        <no-step-log value="true"/>
    </report>

    <traci_server>
        <remote-port value="38977"/>
    </traci_server>

    <gui_only>
        <gui-settings-file value="/workspace/nets/60p2k/gui-settings.xml"/>
        <quit-on-end value="true"/>
    </gui_only>

</configuration>
-->

<tripinfos xmlns:xsi="http://www.w3.org/2001/XMLSchema-instance" xsi:noNamespaceSchemaLocation="http://sumo.dlr.de/xsd/tripinfo_file.xsd">
    <tripinfo id="flow_3_phase1_N_right.0" depart="0.00" departLane="N_in_0" departPos="103.38" departSpeed="3.75" departDelay="0.00" arrival="23.00" arrivalLane="S_out_0" arrivalPos="189.60" arrivalSpeed="14.49" duration="23.00" routeLength="296.62" waitingTime="0.00" waitingCount="0" stopTime="0.00" timeLoss="2.81" rerouteNo="0" devices="vehroute_flow_3_phase1_N_right.0 tripinfo_flow_3_phase1_N_right.0" vType="car" speedFactor="1.09" vaporized=""/>
    <tripinfo id="flow_5_phase1_S_straight.0" depart="0.00" departLane="S_in_1" departPos="107.37" departSpeed="7.21" departDelay="0.00" arrival="25.00" arrivalLane="N_out_0" arrivalPos="189.60" arrivalSpeed="15.43" duration="25.00" routeLength="292.63" waitingTime="0.00" waitingCount="0" stopTime="0.00" timeLoss="5.93" rerouteNo="0" devices="vehroute_flow_5_phase1_S_straight.0 tripinfo_flow_5_phase1_S_straight.0" vType="moto" speedFactor="1.15" vaporized=""/>
    <tripinfo id="flow_9_phase1_E_straight.0" depart="0.00" departLane="S_in_0" departPos="168.29" departSpeed="9.83" departDelay="0.00" arrival="30.00" arrivalLane="S_out_1" arrivalPos="189.60" arrivalSpeed="12.46" duration="30.00" routeLength="215.58" waitingTime="2.00" waitingCount="1" stopTime="0.00" timeLoss="10.59" rerouteNo="0" devices="vehroute_flow_9_phase1_E_straight.0 tripinfo_flow_9_phase1_E_straight.0" vType="truck" speedFactor="0.90" vaporized=""/>
    <tripinfo id="flow_14_phase1_W_left.0" depart="0.00" departLane="S_in_1" departPos="42.31" departSpeed="3.71" departDelay="0.00" arrival="30.00" arrivalLane="E_out_0" arrivalPos="189.60" arrivalSpeed="14.03" duration="30.00" routeLength="345.92" waitingTime="0.00" waitingCount="0" stopTime="0.00" timeLoss="4.74" rerouteNo="0" devices="vehroute_flow_14_phase1_W_left.0 tripinfo_flow_14_phase1_W_left.0" vType="moto" speedFactor="1.01" vaporized=""/>
    <tripinfo id="flow_6_phase1_S_left.0" depart="0.00" departLane="S_in_1" departPos="166.01" departSpeed="0.74" departDelay="0.00" arrival="33.00" arrivalLane="W_out_1" arrivalPos="189.60" arrivalSpeed="11.30" duration="33.00" routeLength="232.54" waitingTime="1.00" waitingCount="1" stopTime="0.00" timeLoss="12.40" rerouteNo="0" devices="vehroute_flow_6_phase1_S_left.0 tripinfo_flow_6_phase1_S_left.0" vType="moto" speedFactor="0.88" vaporized=""/>
    <tripinfo id="flow_16_phase1_W_uturn.0" depart="0.00" departLane="W_in_1" departPos="135.67" departSpeed="1.28" departDelay="0.00" arrival="35.00" arrivalLane="W_out_1" arrivalPos="189.60" arrivalSpeed="13.44" duration="35.00" routeLength="248.20" waitingTime="8.00" waitingCount="1" stopTime="0.00" timeLoss="17.00" rerouteNo="0" devices="vehroute_flow_16_phase1_W_uturn.0 tripinfo_flow_16_phase1_W_uturn.0" vType="moto" speedFactor="1.04" vaporized=""/>
    <tripinfo id="flow_4_phase1_N_uturn.0" depart="0.00" departLane="W_in_1" departPos="127.60" departSpeed="0.08" departDelay="0.00" arrival="38.00" arrivalLane="E_out_0" arrivalPos="189.60" arrivalSpeed="11.87" duration="38.00" routeLength="272.40" waitingTime="6.00" waitingCount="1" stopTime="0.00" timeLoss="16.09" rerouteNo="0" devices="vehroute_flow_4_phase1_N_uturn.0 tripinfo_flow_4_phase1_N_uturn.0" vType="car" speedFactor="0.92" vaporized=""/>
    <tripinfo id="flow_11_phase1_E_right.0" depart="0.00" departLane="E_in_1" departPos="144.95" departSpeed="4.02" departDelay="0.00" arrival="40.00" arrivalLane="N_out_0" arrivalPos="189.60" arrivalSpeed="13.14" duration="40.00" routeLength="243.28" waitingTime="9.00" waitingCount="1" stopTime="0.00" timeLoss="20.29" rerouteNo="0" devices="vehroute_flow_11_phase1_E_right.0 tripinfo_flow_11_phase1_E_right.0" vType="bus" speedFactor="0.96" vaporized=""/>
    <tripinfo id="flow_15_phase1_W_right.0" depart="0.00" departLane="W_in_1" departPos="45.77" departSpeed="6.73" departDelay="0.00" arrival="41.00" arrivalLane="W_out_0" arrivalPos="189.60" arrivalSpeed="10.48" duration="41.00" routeLength="338.10" waitingTime="2.00" waitingCount="1" stopTime="0.00" timeLoss="10.64" rerouteNo="0" devices="vehroute_flow_15_phase1_W_right.0 tripinfo_flow_15_phase1_W_right.0" vType="moto" speedFactor="0.85" vaporized=""/>
    <tripinfo id="flow_1_phase1_N_straight.0" depart="0.00" departLane="W_in_0" departPos="8.62" departSpeed="8.51" departDelay="0.00" arrival="46.00" arrivalLane="W_out_0" arrivalPos="189.60" arrivalSpeed="11.33" duration="46.00" routeLength="375.25" waitingTime="0.00" waitingCount="0" stopTime="0.00" timeLoss="12.81" rerouteNo="0" devices="vehroute_flow_1_phase1_N_straight.0 tripinfo_flow_1_phase1_N_straight.0" vType="bus" speedFactor="0.86" vaporized=""/>
    <tripinfo id="flow_13_phase1_W_straight.0" depart="0.00" departLane="W_in_0" departPos="77.99" departSpeed="3.79" departDelay="0.00" arrival="48.00" arrivalLane="E_out_0" arrivalPos="189.60" arrivalSpeed="11.14" duration="48.00" routeLength="322.01" waitingTime="2.00" waitingCount="1" stopTime="0.00" timeLoss="18.97" rerouteNo="0" devices="vehroute_flow_13_phase1_W_straight.0 tripinfo_flow_13_phase1_W_straight.0" vType="container" speedFactor="0.82" vaporized=""/>
    <tripinfo id="flow_10_phase1_E_left.0" depart="0.00" departLane="E_in_0" departPos="44.88" departSpeed="7.69" departDelay="0.00" arrival="53.00" arrivalLane="S_out_1" arrivalPos="189.60" arrivalSpeed="13.39" duration="53.00" routeLength="353.67" waitingTime="10.00" waitingCount="2" stopTime="0.00" timeLoss="26.47" rerouteNo="0" devices="vehroute_flow_10_phase1_E_left.0 tripinfo_flow_10_phase1_E_left.0" vType="truck" speedFactor="1.02" vaporized=""/>
    <tripinfo id="flow_8_phase1_S_uturn.0" depart="0.00" departLane="S_in_0" departPos="120.11" departSpeed="4.48" departDelay="0.00" arrival="55.00" arrivalLane="S_out_1" arrivalPos="189.60" arrivalSpeed="13.51" duration="55.00" routeLength="263.76" waitingTime="22.00" waitingCount="3" stopTime="0.00" timeLoss="35.34" rerouteNo="0" devices="vehroute_flow_8_phase1_S_uturn.0 tripinfo_flow_8_phase1_S_uturn.0" vType="moto" speedFactor="1.05" vaporized=""/>
    <tripinfo id="flow_9_phase1_E_straight.1" depart="13.00" departLane="S_in_1" departPos="177.29" departSpeed="4.61" departDelay="0.12" arrival="56.00" arrivalLane="S_out_1" arrivalPos="189.60" arrivalSpeed="15.31" duration="43.00" routeLength="206.58" waitingTime="20.00" waitingCount="2" stopTime="0.00" timeLoss="29.02" rerouteNo="0" devices="vehroute_flow_9_phase1_E_straight.1 tripinfo_flow_9_phase1_E_straight.1" vType="moto" speedFactor="1.16" vaporized=""/>
    <tripinfo id="flow_7_phase1_S_right.0" depart="0.00" departLane="S_in_0" departPos="8.76" departSpeed="8.07" departDelay="0.00" arrival="57.00" arrivalLane="E_out_0" arrivalPos="189.60" arrivalSpeed="11.72" duration="57.00" routeLength="379.47" waitingTime="12.00" waitingCount="1" stopTime="0.00" timeLoss="23.83" rerouteNo="0" devices="vehroute_flow_7_phase1_S_right.0 tripinfo_flow_7_phase1_S_right.0" vType="container" speedFactor="0.85" vaporized=""/>
    <tripinfo id="flow_13_phase1_W_straight.1" depart="14.00" departLane="W_in_0" departPos="5.28" departSpeed="2.37" departDelay="0.62" arrival="61.00" arrivalLane="E_out_0" arrivalPos="189.60" arrivalSpeed="15.32" duration="47.00" routeLength="394.72" waitingTime="11.00" waitingCount="1" stopTime="0.00" timeLoss="21.07" rerouteNo="0" devices="vehroute_flow_13_phase1_W_straight.1 tripinfo_flow_13_phase1_W_straight.1" vType="car" speedFactor="1.12" vaporized=""/>
    <tripinfo id="flow_11_phase1_E_right.1" depart="33.00" departLane="E_in_1" departPos="97.23" departSpeed="5.62" departDelay="0.51" arrival="61.00" arrivalLane="N_out_0" arrivalPos="189.60" arrivalSpeed="13.46" duration="28.00" routeLength="291.00" waitingTime="0.00" waitingCount="0" stopTime="0.00" timeLoss="6.44" rerouteNo="0" devices="vehroute_flow_11_phase1_E_right.1 tripinfo_flow_11_phase1_E_right.1" vType="moto" speedFactor="1.04" vaporized=""/>
    <tripinfo id="flow_12_phase1_E_uturn.0" depart="0.00" departLane="E_in_0" departPos="5.65" departSpeed="13.76" departDelay="0.00" arrival="62.00" arrivalLane="E_out_1" arrivalPos="189.60" arrivalSpeed="13.55" duration="62.00" routeLength="378.22" waitingTime="16.00" waitingCount="2" stopTime="0.00" timeLoss="33.96" rerouteNo="0" devices="vehroute_flow_12_phase1_E_uturn.0 tripinfo_flow_12_phase1_E_uturn.0" vType="moto" speedFactor="1.03" vaporized=""/>
    <tripinfo id="flow_1_phase1_N_straight.1" depart="14.00" departLane="W_in_0" departPos="93.39" departSpeed="3.73" departDelay="0.48" arrival="64.00" arrivalLane="W_out_1" arrivalPos="189.60" arrivalSpeed="11.25" duration="50.00" routeLength="290.48" waitingTime="13.00" waitingCount="1" stopTime="0.00" timeLoss="24.13" rerouteNo="0" devices="vehroute_flow_1_phase1_N_straight.1 tripinfo_flow_1_phase1_N_straight.1" vType="moto" speedFactor="0.87" vaporized=""/>
    <tripinfo id="flow_13_phase1_W_straight.2" depart="27.00" departLane="W_in_1" departPos="107.53" departSpeed="1.15" departDelay="0.23" arrival="67.00" arrivalLane="E_out_0" arrivalPos="189.60" arrivalSpeed="13.06" duration="40.00" routeLength="292.47" waitingTime="3.00" waitingCount="1" stopTime="0.00" timeLoss="17.68" rerouteNo="0" devices="vehroute_flow_13_phase1_W_straight.2 tripinfo_flow_13_phase1_W_straight.2" vType="bus" speedFactor="0.97" vaporized=""/>
    <tripinfo id="flow_1_phase1_N_straight.3" depart="41.00" departLane="W_in_0" departPos="148.08" departSpeed="10.59" departDelay="0.45" arrival="67.00" arrivalLane="W_out_1" arrivalPos="189.60" arrivalSpeed="15.29" duration="26.00" routeLength="235.79" waitingTime="3.00" waitingCount="1" stopTime="0.00" timeLoss="9.71" rerouteNo="0" devices="vehroute_flow_1_phase1_N_straight.3 tripinfo_flow_1_phase1_N_straight.3" vType="moto" speedFactor="1.20" vaporized=""/>
    <tripinfo id="flow_15_phase1_W_right.1" depart="33.00" departLane="W_in_1" departPos="79.10" departSpeed="8.77" departDelay="0.16" arrival="69.00" arrivalLane="W_out_1" arrivalPos="189.60" arrivalSpeed="14.84" duration="36.00" routeLength="304.77" waitingTime="2.00" waitingCount="1" stopTime="0.00" timeLoss="14.70" rerouteNo="0" devices="vehroute_flow_15_phase1_W_right.1 tripinfo_flow_15_phase1_W_right.1" vType="moto" speedFactor="1.08" vaporized=""/>
    <tripinfo id="flow_2_phase1_N_left.0" depart="0.00" departLane="E_in_1" departPos="8.27" departSpeed="8.33" departDelay="0.00" arrival="71.00" arrivalLane="E_out_1" arrivalPos="189.60" arrivalSpeed="13.83" duration="71.00" routeLength="375.60" waitingTime="21.00" waitingCount="3" stopTime="0.00" timeLoss="42.71" rerouteNo="0" devices="vehroute_flow_2_phase1_N_left.0 tripinfo_flow_2_phase1_N_left.0" vType="moto" speedFactor="1.02" vaporized=""/>
    <tripinfo id="flow_5_phase1_S_straight.1" depart="14.00" departLane="S_in_1" departPos="34.76" departSpeed="2.69" departDelay="0.77" arrival="73.00" arrivalLane="N_out_0" arrivalPos="189.60" arrivalSpeed="15.58" duration="59.00" routeLength="365.24" waitingTime="21.00" waitingCount="3" stopTime="0.00" timeLoss="35.88" rerouteNo="0" devices="vehroute_flow_5_phase1_S_straight.1 tripinfo_flow_5_phase1_S_straight.1" vType="moto" speedFactor="1.19" vaporized=""/>
    <tripinfo id="flow_5_phase1_S_straight.2" depart="27.00" departLane="S_in_1" departPos="59.51" departSpeed="13.27" departDelay="0.54" arrival="75.00" arrivalLane="N_out_0" arrivalPos="189.60" arrivalSpeed="13.24" duration="48.00" routeLength="340.49" waitingTime="13.00" waitingCount="1" stopTime="0.00" timeLoss="22.39" rerouteNo="0" devices="vehroute_flow_5_phase1_S_straight.2 tripinfo_flow_5_phase1_S_straight.2" vType="moto" speedFactor="0.96" vaporized=""/>
    <tripinfo id="flow_9_phase1_E_straight.2" depart="26.00" departLane="S_in_1" departPos="12.70" departSpeed="7.55" departDelay="0.25" arrival="76.00" arrivalLane="S_out_1" arrivalPos="189.60" arrivalSpeed="12.75" duration="50.00" routeLength="371.17" waitingTime="12.00" waitingCount="1" stopTime="0.00" timeLoss="22.24" rerouteNo="0" devices="vehroute_flow_9_phase1_E_straight.2 tripinfo_flow_9_phase1_E_straight.2" vType="moto" speedFactor="0.99" vaporized=""/>
    <tripinfo id="flow_3_phase1_N_right.1" depart="35.00" departLane="N_in_0" departPos="93.41" departSpeed="11.32" departDelay="0.82" arrival="77.00" arrivalLane="S_out_0" arrivalPos="189.60" arrivalSpeed="11.23" duration="42.00" routeLength="306.59" waitingTime="11.00" waitingCount="1" stopTime="0.00" timeLoss="16.92" rerouteNo="0" devices="vehroute_flow_3_phase1_N_right.1 tripinfo_flow_3_phase1_N_right.1" vType="moto" speedFactor="0.88" vaporized=""/>
    <tripinfo id="flow_6_phase1_S_left.1" depart="34.00" departLane="S_in_0" departPos="4.52" departSpeed="14.19" departDelay="0.55" arrival="78.00" arrivalLane="W_out_1" arrivalPos="189.60" arrivalSpeed="13.98" duration="44.00" routeLength="394.03" waitingTime="8.00" waitingCount="1" stopTime="0.00" timeLoss="15.52" rerouteNo="0" devices="vehroute_flow_6_phase1_S_left.1 tripinfo_flow_6_phase1_S_left.1" vType="moto" speedFactor="1.05" vaporized=""/>
    <tripinfo id="flow_14_phase1_W_left.1" depart="35.00" departLane="S_in_0" departPos="86.42" departSpeed="9.04" departDelay="0.53" arrival="85.00" arrivalLane="E_out_0" arrivalPos="189.60" arrivalSpeed="12.13" duration="50.00" routeLength="301.81" waitingTime="10.00" waitingCount="1" stopTime="0.00" timeLoss="24.96" rerouteNo="0" devices="vehroute_flow_14_phase1_W_left.1 tripinfo_flow_14_phase1_W_left.1" vType="container" speedFactor="0.91" vaporized=""/>
    <tripinfo id="flow_9_phase1_E_straight.3" depart="39.00" departLane="S_in_0" departPos="56.18" departSpeed="6.79" departDelay="0.37" arrival="86.00" arrivalLane="S_out_0" arrivalPos="189.60" arrivalSpeed="11.49" duration="47.00" routeLength="327.69" waitingTime="6.00" waitingCount="1" stopTime="0.00" timeLoss="17.47" rerouteNo="0" devices="vehroute_flow_9_phase1_E_straight.3 tripinfo_flow_9_phase1_E_straight.3" vType="bus" speedFactor="0.85" vaporized=""/>
    <tripinfo id="flow_13_phase1_W_straight.3" depart="41.00" departLane="W_in_1" departPos="23.57" departSpeed="10.37" departDelay="0.85" arrival="88.00" arrivalLane="E_out_0" arrivalPos="189.60" arrivalSpeed="14.21" duration="47.00" routeLength="376.43" waitingTime="10.00" waitingCount="1" stopTime="0.00" timeLoss="20.73" rerouteNo="0" devices="vehroute_flow_13_phase1_W_straight.3 tripinfo_flow_13_phase1_W_straight.3" vType="car" speedFactor="1.05" vaporized=""/>
    <tripinfo id="flow_1_phase1_N_straight.2" depart="28.00" departLane="W_in_0" departPos="8.88" departSpeed="2.33" departDelay="0.97" arrival="89.00" arrivalLane="W_out_1" arrivalPos="189.60" arrivalSpeed="12.36" duration="61.00" routeLength="374.99" waitingTime="12.00" waitingCount="1" stopTime="0.00" timeLoss="30.76" rerouteNo="0" devices="vehroute_flow_1_phase1_N_straight.2 tripinfo_flow_1_phase1_N_straight.2" vType="moto" speedFactor="0.93" vaporized=""/>
    <tripinfo id="flow_13_phase1_W_straight.5" depart="67.00" departLane="W_in_0" departPos="63.10" departSpeed="13.38" departDelay="0.08" arrival="90.00" arrivalLane="E_out_0" arrivalPos="189.60" arrivalSpeed="14.91" duration="23.00" routeLength="336.90" waitingTime="0.00" waitingCount="0" stopTime="0.00" timeLoss="1.14" rerouteNo="0" devices="vehroute_flow_13_phase1_W_straight.5 tripinfo_flow_13_phase1_W_straight.5" vType="moto" speedFactor="1.14" vaporized=""/>
    <tripinfo id="flow_1_phase1_N_straight.4" depart="55.00" departLane="W_in_0" departPos="125.76" departSpeed="4.40" departDelay="0.94" arrival="94.00" arrivalLane="W_out_1" arrivalPos="189.60" arrivalSpeed="12.18" duration="39.00" routeLength="258.11" waitingTime="5.00" waitingCount="1" stopTime="0.00" timeLoss="17.76" rerouteNo="0" devices="vehroute_flow_1_phase1_N_straight.4 tripinfo_flow_1_phase1_N_straight.4" vType="truck" speedFactor="0.92" vaporized=""/>
    <tripinfo id="flow_13_phase1_W_straight.4" depart="54.00" departLane="W_in_1" departPos="29.12" departSpeed="10.21" departDelay="0.46" arrival="98.00" arrivalLane="E_out_0" arrivalPos="189.60" arrivalSpeed="12.03" duration="44.00" routeLength="370.88" waitingTime="2.00" waitingCount="1" stopTime="0.00" timeLoss="12.33" rerouteNo="0" devices="vehroute_flow_13_phase1_W_straight.4 tripinfo_flow_13_phase1_W_straight.4" vType="bus" speedFactor="0.87" vaporized=""/>
    <tripinfo id="flow_3_phase1_N_right.2" depart="69.00" departLane="N_in_1" departPos="109.89" departSpeed="2.42" departDelay="0.63" arrival="100.00" arrivalLane="S_out_0" arrivalPos="189.60" arrivalSpeed="14.56" duration="31.00" routeLength="290.11" waitingTime="2.00" waitingCount="1" stopTime="0.00" timeLoss="11.88" rerouteNo="0" devices="vehroute_flow_3_phase1_N_right.2 tripinfo_flow_3_phase1_N_right.2" vType="moto" speedFactor="1.10" vaporized=""/>
    <tripinfo id="flow_5_phase1_S_straight.3" depart="40.00" departLane="S_in_0" departPos="19.25" departSpeed="5.13" departDelay="0.31" arrival="103.00" arrivalLane="N_out_1" arrivalPos="189.60" arrivalSpeed="14.88" duration="63.00" routeLength="380.75" waitingTime="15.00" waitingCount="2" stopTime="0.00" timeLoss="37.08" rerouteNo="0" devices="vehroute_flow_5_phase1_S_straight.3 tripinfo_flow_5_phase1_S_straight.3" vType="moto" speedFactor="1.08" vaporized=""/>
    <tripinfo id="flow_10_phase1_E_left.1" depart="34.00" departLane="E_in_0" departPos="166.00" departSpeed="1.12" departDelay="0.50" arrival="107.00" arrivalLane="S_out_0" arrivalPos="189.60" arrivalSpeed="10.43" duration="73.00" routeLength="232.55" waitingTime="28.00" waitingCount="4" stopTime="0.00" timeLoss="49.54" rerouteNo="0" devices="vehroute_flow_10_phase1_E_left.1 tripinfo_flow_10_phase1_E_left.1" vType="truck" speedFactor="0.77" vaporized=""/>
    <tripinfo id="flow_7_phase1_S_right.2" depart="65.00" departLane="S_in_0" departPos="52.57" departSpeed="8.42" departDelay="0.01" arrival="108.00" arrivalLane="E_out_1" arrivalPos="189.60" arrivalSpeed="13.93" duration="43.00" routeLength="335.66" waitingTime="7.00" waitingCount="1" stopTime="0.00" timeLoss="18.40" rerouteNo="0" devices="vehroute_flow_7_phase1_S_right.2 tripinfo_flow_7_phase1_S_right.2" vType="moto" speedFactor="1.03" vaporized=""/>
    <tripinfo id="flow_7_phase1_S_right.1" depart="33.00" departLane="S_in_1" departPos="80.24" departSpeed="2.32" departDelay="0.51" arrival="111.00" arrivalLane="E_out_0" arrivalPos="189.60" arrivalSpeed="10.79" duration="78.00" routeLength="307.99" waitingTime="20.00" waitingCount="2" stopTime="0.00" timeLoss="48.15" rerouteNo="0" devices="vehroute_flow_7_phase1_S_right.1 tripinfo_flow_7_phase1_S_right.1" vType="container" speedFactor="0.78" vaporized=""/>
    <tripinfo id="flow_5_phase1_S_straight.4" depart="53.00" departLane="S_in_1" departPos="128.04" departSpeed="0.57" departDelay="0.08" arrival="111.00" arrivalLane="N_out_1" arrivalPos="189.60" arrivalSpeed="13.36" duration="58.00" routeLength="271.96" waitingTime="10.00" waitingCount="1" stopTime="0.00" timeLoss="37.08" rerouteNo="0" devices="vehroute_flow_5_phase1_S_straight.4 tripinfo_flow_5_phase1_S_straight.4" vType="container" speedFactor="0.97" vaporized=""/>
    <tripinfo id="flow_11_phase1_E_right.2" depart="65.00" departLane="E_in_1" departPos="162.40" departSpeed="1.63" departDelay="0.02" arrival="112.00" arrivalLane="N_out_0" arrivalPos="189.60" arrivalSpeed="15.42" duration="47.00" routeLength="225.83" waitingTime="21.00" waitingCount="2" stopTime="0.00" timeLoss="31.38" rerouteNo="0" devices="vehroute_flow_11_phase1_E_right.2 tripinfo_flow_11_phase1_E_right.2" vType="moto" speedFactor="1.14" vaporized=""/>
    <tripinfo id="flow_2_phase1_N_left.2" depart="66.00" departLane="E_in_0" departPos="179.13" departSpeed="7.73" departDelay="0.64" arrival="112.00" arrivalLane="E_out_1" arrivalPos="189.60" arrivalSpeed="14.41" duration="46.00" routeLength="204.74" waitingTime="27.00" waitingCount="1" stopTime="0.00" timeLoss="31.16" rerouteNo="0" devices="vehroute_flow_2_phase1_N_left.2 tripinfo_flow_2_phase1_N_left.2" vType="emergency" speedFactor="1.10" vaporized=""/>
    <tripinfo id="flow_2_phase1_N_left.1" depart="33.00" departLane="E_in_1" departPos="66.71" departSpeed="11.27" departDelay="0.32" arrival="114.00" arrivalLane="E_out_1" arrivalPos="189.60" arrivalSpeed="15.04" duration="81.00" routeLength="317.16" waitingTime="35.00" waitingCount="5" stopTime="0.00" timeLoss="60.07" rerouteNo="0" devices="vehroute_flow_2_phase1_N_left.1 tripinfo_flow_2_phase1_N_left.1" vType="moto" speedFactor="1.12" vaporized=""/>
    <tripinfo id="flow_15_phase1_W_right.2" depart="66.00" departLane="W_in_0" departPos="64.25" departSpeed="5.81" departDelay="0.32" arrival="116.00" arrivalLane="W_out_1" arrivalPos="189.60" arrivalSpeed="11.30" duration="50.00" routeLength="319.62" waitingTime="15.00" waitingCount="1" stopTime="0.00" timeLoss="22.48" rerouteNo="0" devices="vehroute_flow_15_phase1_W_right.2 tripinfo_flow_15_phase1_W_right.2" vType="moto" speedFactor="0.89" vaporized=""/>
    <tripinfo id="flow_1_phase1_N_straight.5" depart="68.00" departLane="W_in_0" departPos="69.49" departSpeed="5.57" departDelay="0.42" arrival="118.00" arrivalLane="W_out_1" arrivalPos="189.60" arrivalSpeed="11.41" duration="50.00" routeLength="314.38" waitingTime="14.00" waitingCount="1" stopTime="0.00" timeLoss="23.05" rerouteNo="0" devices="vehroute_flow_1_phase1_N_straight.5 tripinfo_flow_1_phase1_N_straight.5" vType="moto" speedFactor="0.90" vaporized=""/>
    <tripinfo id="flow_16_phase1_W_uturn.1" depart="67.00" departLane="W_in_1" departPos="61.32" departSpeed="2.21" departDelay="0.80" arrival="119.00" arrivalLane="W_out_1" arrivalPos="189.60" arrivalSpeed="12.75" duration="52.00" routeLength="322.55" waitingTime="13.00" waitingCount="1" stopTime="0.00" timeLoss="28.25" rerouteNo="0" devices="vehroute_flow_16_phase1_W_uturn.1 tripinfo_flow_16_phase1_W_uturn.1" vType="moto" speedFactor="1.04" vaporized=""/>
    <tripinfo id="flow_4_phase1_N_uturn.1" depart="67.00" departLane="W_in_1" departPos="2.21" departSpeed="8.58" departDelay="0.96" arrival="121.00" arrivalLane="E_out_0" arrivalPos="189.60" arrivalSpeed="12.34" duration="54.00" routeLength="397.79" waitingTime="13.00" waitingCount="1" stopTime="0.00" timeLoss="22.99" rerouteNo="0" devices="vehroute_flow_4_phase1_N_uturn.1 tripinfo_flow_4_phase1_N_uturn.1" vType="moto" speedFactor="0.94" vaporized=""/>
    <tripinfo id="flow_11_phase1_E_right.3" depart="98.00" departLane="E_in_0" departPos="150.32" departSpeed="4.98" departDelay="0.53" arrival="124.00" arrivalLane="N_out_0" arrivalPos="189.60" arrivalSpeed="10.39" duration="26.00" routeLength="237.91" waitingTime="0.00" waitingCount="0" stopTime="0.00" timeLoss="3.60" rerouteNo="0" devices="vehroute_flow_11_phase1_E_right.3 tripinfo_flow_11_phase1_E_right.3" vType="moto" speedFactor="0.83" vaporized=""/>
    <tripinfo id="flow_10_phase1_E_left.2" depart="67.00" departLane="E_in_1" departPos="148.65" departSpeed="7.23" departDelay="0.00" arrival="125.00" arrivalLane="S_out_1" arrivalPos="189.60" arrivalSpeed="14.58" duration="58.00" routeLength="249.90" waitingTime="23.00" waitingCount="3" stopTime="0.00" timeLoss="39.86" rerouteNo="0" devices="vehroute_flow_10_phase1_E_left.2 tripinfo_flow_10_phase1_E_left.2" vType="moto" speedFactor="1.07" vaporized=""/>
    <tripinfo id="flow_13_phase1_W_straight.7" depart="94.00" departLane="W_in_1" departPos="142.12" departSpeed="0.39" departDelay="0.31" arrival="126.00" arrivalLane="E_out_0" arrivalPos="189.60" arrivalSpeed="9.86" duration="32.00" routeLength="257.88" waitingTime="0.00" waitingCount="0" stopTime="0.00" timeLoss="8.44" rerouteNo="0" devices="vehroute_flow_13_phase1_W_straight.7 tripinfo_flow_13_phase1_W_straight.7" vType="moto" speedFactor="0.80" vaporized=""/>
    <tripinfo id="flow_12_phase1_E_uturn.1" depart="66.00" departLane="E_in_1" departPos="65.57" departSpeed="2.22" departDelay="0.19" arrival="127.00" arrivalLane="E_out_1" arrivalPos="189.60" arrivalSpeed="12.40" duration="61.00" routeLength="318.30" waitingTime="22.00" waitingCount="3" stopTime="0.00" timeLoss="35.96" rerouteNo="0" devices="vehroute_flow_12_phase1_E_uturn.1 tripinfo_flow_12_phase1_E_uturn.1" vType="moto" speedFactor="0.95" vaporized=""/>
    <tripinfo id="flow_5_phase1_S_straight.5" depart="67.00" departLane="S_in_0" departPos="21.68" departSpeed="12.97" departDelay="0.85" arrival="127.00" arrivalLane="N_out_0" arrivalPos="189.60" arrivalSpeed="13.21" duration="60.00" routeLength="378.32" waitingTime="20.00" waitingCount="2" stopTime="0.00" timeLoss="32.76" rerouteNo="0" devices="vehroute_flow_5_phase1_S_straight.5 tripinfo_flow_5_phase1_S_straight.5" vType="moto" speedFactor="1.03" vaporized=""/>
    <tripinfo id="flow_5_phase1_S_straight.6" depart="80.00" departLane="S_in_0" departPos="60.83" departSpeed="14.04" departDelay="0.62" arrival="129.00" arrivalLane="N_out_0" arrivalPos="189.60" arrivalSpeed="14.45" duration="49.00" routeLength="339.17" waitingTime="13.00" waitingCount="1" stopTime="0.00" timeLoss="26.45" rerouteNo="0" devices="vehroute_flow_5_phase1_S_straight.6 tripinfo_flow_5_phase1_S_straight.6" vType="moto" speedFactor="1.10" vaporized=""/>
    <tripinfo id="flow_14_phase1_W_left.2" depart="69.00" departLane="S_in_1" departPos="21.74" departSpeed="9.85" departDelay="0.06" arrival="130.00" arrivalLane="E_out_0" arrivalPos="189.60" arrivalSpeed="11.79" duration="61.00" routeLength="366.49" waitingTime="14.00" waitingCount="2" stopTime="0.00" timeLoss="30.29" rerouteNo="0" devices="vehroute_flow_14_phase1_W_left.2 tripinfo_flow_14_phase1_W_left.2" vType="car" speedFactor="0.90" vaporized=""/>
    <tripinfo id="flow_7_phase1_S_right.3" depart="98.00" departLane="S_in_1" departPos="111.57" departSpeed="0.11" departDelay="0.52" arrival="132.00" arrivalLane="E_out_0" arrivalPos="189.60" arrivalSpeed="14.60" duration="34.00" routeLength="276.66" waitingTime="3.00" waitingCount="1" stopTime="0.00" timeLoss="13.43" rerouteNo="0" devices="vehroute_flow_7_phase1_S_right.3 tripinfo_flow_7_phase1_S_right.3" vType="moto" speedFactor="1.07" vaporized=""/>
    <tripinfo id="flow_3_phase1_N_right.3" depart="103.00" departLane="N_in_0" departPos="35.64" departSpeed="3.09" departDelay="0.45" arrival="134.00" arrivalLane="S_out_0" arrivalPos="189.60" arrivalSpeed="13.32" duration="31.00" routeLength="364.36" waitingTime="0.00" waitingCount="0" stopTime="0.00" timeLoss="3.03" rerouteNo="0" devices="vehroute_flow_3_phase1_N_right.3 tripinfo_flow_3_phase1_N_right.3" vType="moto" speedFactor="0.96" vaporized=""/>
    <tripinfo id="flow_5_phase1_S_straight.7" depart="93.00" departLane="S_in_0" departPos="16.04" departSpeed="5.07" departDelay="0.39" arrival="137.00" arrivalLane="N_out_0" arrivalPos="189.60" arrivalSpeed="11.92" duration="44.00" routeLength="383.96" waitingTime="0.00" waitingCount="0" stopTime="0.00" timeLoss="12.95" rerouteNo="0" devices="vehroute_flow_5_phase1_S_straight.7 tripinfo_flow_5_phase1_S_straight.7" vType="bus" speedFactor="0.90" vaporized=""/>
    <tripinfo id="flow_1_phase1_N_straight.7" depart="95.00" departLane="W_in_1" departPos="22.64" departSpeed="9.84" departDelay="0.39" arrival="139.00" arrivalLane="W_out_1" arrivalPos="189.60" arrivalSpeed="14.46" duration="44.00" routeLength="361.23" waitingTime="9.00" waitingCount="1" stopTime="0.00" timeLoss="18.31" rerouteNo="0" devices="vehroute_flow_1_phase1_N_straight.7 tripinfo_flow_1_phase1_N_straight.7" vType="moto" speedFactor="1.06" vaporized=""/>
    <tripinfo id="flow_9_phase1_E_straight.4" depart="52.00" departLane="S_in_0" departPos="70.46" departSpeed="1.87" departDelay="0.49" arrival="140.00" arrivalLane="S_out_1" arrivalPos="189.60" arrivalSpeed="12.72" duration="88.00" routeLength="313.41" waitingTime="29.00" waitingCount="3" stopTime="0.00" timeLoss="62.72" rerouteNo="0" devices="vehroute_flow_9_phase1_E_straight.4 tripinfo_flow_9_phase1_E_straight.4" vType="bus" speedFactor="0.95" vaporized=""/>
    <tripinfo id="flow_15_phase1_W_right.3" depart="99.00" departLane="W_in_1" departPos="20.79" departSpeed="6.31" departDelay="0.49" arrival="140.00" arrivalLane="W_out_1" arrivalPos="189.60" arrivalSpeed="15.24" duration="41.00" routeLength="363.08" waitingTime="8.00" waitingCount="1" stopTime="0.00" timeLoss="17.23" rerouteNo="0" devices="vehroute_flow_15_phase1_W_right.3 tripinfo_flow_15_phase1_W_right.3" vType="moto" speedFactor="1.17" vaporized=""/>
    <tripinfo id="flow_2_phase1_N_left.3" depart="99.00" departLane="E_in_0" departPos="36.14" departSpeed="7.46" departDelay="0.96" arrival="142.00" arrivalLane="E_out_1" arrivalPos="189.60" arrivalSpeed="11.75" duration="43.00" routeLength="347.73" waitingTime="6.00" waitingCount="1" stopTime="0.00" timeLoss="13.01" rerouteNo="0" devices="vehroute_flow_2_phase1_N_left.3 tripinfo_flow_2_phase1_N_left.3" vType="moto" speedFactor="0.89" vaporized=""/>