<?xml version="1.0" encoding="UTF-8"?>

<!-- generated on 2025-12-08 21:21:58 by Eclipse SUMO sumo Version 1.18.0
<configuration xmlns:xsi="http://www.w3.org/2001/XMLSchema-instance" xsi:noNamespaceSchemaLocation="http://sumo.dlr.de/xsd/sumoConfiguration.xsd">

    <input>
        <net-file value="/workspace/nets/60p2k/net.net.xml"/>
        <route-files value="/workspace/nets/60p2k/route_temp_244_130720908769792_63793894.rou.xml"/>
    </input>

    <output>
        <summary-output value="results/summary_ep_3.xml"/>
        <tripinfo-output value="results/tripinfo_ep_3.xml"/>
        <vehroute-output value="results/vehroute_ep_3.xml"/>
    </output>

    <time>
        <begin value="0"/>
    </time>

    <report>
        <verbose value="true"/>
        <no-step-log value="true"/>
    </report>

    <traci_server>
        <remote-port value="45433"/>
    </traci_server>

    <gui_only>
        <gui-settings-file value="/workspace/nets/60p2k/gui-settings.xml"/>
        <quit-on-end value="true"/>
    </gui_only>

</configuration>
-->

<tripinfos xmlns:xsi="http://www.w3.org/2001/XMLSchema-instance" xsi:noNamespaceSchemaLocation="http://sumo.dlr.de/xsd/tripinfo_file.xsd">
    <tripinfo id="flow_5_phase1_S_straight.0" depart="0.00" departLane="S_in_1" departPos="107.37" departSpeed="7.21" departDelay="0.00" arrival="21.00" arrivalLane="N_out_1" arrivalPos="189.60" arrivalSpeed="15.92" duration="21.00" routeLength="292.63" waitingTime="0.00" waitingCount="0" stopTime="0.00" timeLoss="2.08" rerouteNo="0" devices="vehroute_flow_5_phase1_S_straight.0 tripinfo_flow_5_phase1_S_straight.0" vType="moto" speedFactor="1.15" vaporized=""/>
    <tripinfo id="flow_3_phase1_N_right.0" depart="0.00" departLane="S_in_0" departPos="103.38" departSpeed="3.75" departDelay="0.00" arrival="24.00" arrivalLane="E_out_0" arrivalPos="189.60" arrivalSpeed="14.07" duration="24.00" routeLength="284.85" waitingTime="0.00" waitingCount="0" stopTime="0.00" timeLoss="4.70" rerouteNo="0" devices="vehroute_flow_3_phase1_N_right.0 tripinfo_flow_3_phase1_N_right.0" vType="car" speedFactor="1.09" vaporized=""/>
    <tripinfo id="flow_6_phase1_S_left.0" depart="0.00" departLane="S_in_1" departPos="166.01" departSpeed="0.74" departDelay="0.00" arrival="25.00" arrivalLane="W_out_1" arrivalPos="189.60" arrivalSpeed="11.97" duration="25.00" routeLength="232.54" waitingTime="0.00" waitingCount="0" stopTime="0.00" timeLoss="4.28" rerouteNo="0" devices="vehroute_flow_6_phase1_S_left.0 tripinfo_flow_6_phase1_S_left.0" vType="moto" speedFactor="0.88" vaporized=""/>
    <tripinfo id="flow_14_phase1_W_left.0" depart="0.00" departLane="N_in_1" departPos="50.07" departSpeed="13.54" departDelay="0.00" arrival="31.00" arrivalLane="E_out_1" arrivalPos="189.60" arrivalSpeed="13.81" duration="31.00" routeLength="348.48" waitingTime="0.00" waitingCount="0" stopTime="0.00" timeLoss="5.44" rerouteNo="0" devices="vehroute_flow_14_phase1_W_left.0 tripinfo_flow_14_phase1_W_left.0" vType="moto" speedFactor="1.01" vaporized=""/>
    <tripinfo id="flow_9_phase1_E_straight.0" depart="0.00" departLane="N_in_0" departPos="168.29" departSpeed="9.83" departDelay="0.00" arrival="32.00" arrivalLane="N_out_0" arrivalPos="189.60" arrivalSpeed="12.07" duration="32.00" routeLength="215.58" waitingTime="5.00" waitingCount="1" stopTime="0.00" timeLoss="13.17" rerouteNo="0" devices="vehroute_flow_9_phase1_E_straight.0 tripinfo_flow_9_phase1_E_straight.0" vType="truck" speedFactor="0.90" vaporized=""/>
    <tripinfo id="flow_9_phase1_E_straight.1" depart="13.00" departLane="N_in_0" departPos="131.13" departSpeed="9.54" departDelay="0.12" arrival="35.00" arrivalLane="N_out_1" arrivalPos="189.60" arrivalSpeed="15.63" duration="22.00" routeLength="252.74" waitingTime="0.00" waitingCount="0" stopTime="0.00" timeLoss="4.76" rerouteNo="0" devices="vehroute_flow_9_phase1_E_straight.1 tripinfo_flow_9_phase1_E_straight.1" vType="moto" speedFactor="1.16" vaporized=""/>
    <tripinfo id="flow_7_phase1_S_right.0" depart="0.00" departLane="S_in_0" departPos="8.76" departSpeed="8.07" departDelay="0.00" arrival="38.00" arrivalLane="E_out_0" arrivalPos="189.60" arrivalSpeed="11.22" duration="38.00" routeLength="379.47" waitingTime="0.00" waitingCount="0" stopTime="0.00" timeLoss="5.16" rerouteNo="0" devices="vehroute_flow_7_phase1_S_right.0 tripinfo_flow_7_phase1_S_right.0" vType="container" speedFactor="0.85" vaporized=""/>
    <tripinfo id="flow_5_phase1_S_straight.1" depart="14.00" departLane="S_in_1" departPos="31.93" departSpeed="9.28" departDelay="0.77" arrival="39.00" arrivalLane="N_out_1" arrivalPos="189.60" arrivalSpeed="15.80" duration="25.00" routeLength="368.07" waitingTime="0.00" waitingCount="0" stopTime="0.00" timeLoss="1.25" rerouteNo="0" devices="vehroute_flow_5_phase1_S_straight.1 tripinfo_flow_5_phase1_S_straight.1" vType="moto" speedFactor="1.19" vaporized=""/>
    <tripinfo id="flow_5_phase1_S_straight.2" depart="27.00" departLane="S_in_1" departPos="12.70" departSpeed="12.41" departDelay="0.54" arrival="58.00" arrivalLane="N_out_1" arrivalPos="189.60" arrivalSpeed="12.34" duration="31.00" routeLength="387.30" waitingTime="0.00" waitingCount="0" stopTime="0.00" timeLoss="1.55" rerouteNo="0" devices="vehroute_flow_5_phase1_S_straight.2 tripinfo_flow_5_phase1_S_straight.2" vType="moto" speedFactor="0.96" vaporized=""/>
    <tripinfo id="flow_3_phase1_N_right.1" depart="35.00" departLane="S_in_0" departPos="166.00" departSpeed="1.28" departDelay="0.82" arrival="58.00" arrivalLane="E_out_0" arrivalPos="189.60" arrivalSpeed="11.77" duration="23.00" routeLength="222.23" waitingTime="0.00" waitingCount="0" stopTime="0.00" timeLoss="3.85" rerouteNo="0" devices="vehroute_flow_3_phase1_N_right.1 tripinfo_flow_3_phase1_N_right.1" vType="moto" speedFactor="0.88" vaporized=""/>
    <tripinfo id="flow_9_phase1_E_straight.2" depart="26.00" departLane="N_in_1" departPos="52.87" departSpeed="0.38" departDelay="0.25" arrival="61.00" arrivalLane="N_out_1" arrivalPos="189.60" arrivalSpeed="12.65" duration="35.00" routeLength="331.00" waitingTime="2.00" waitingCount="1" stopTime="0.00" timeLoss="9.36" rerouteNo="0" devices="vehroute_flow_9_phase1_E_straight.2 tripinfo_flow_9_phase1_E_straight.2" vType="moto" speedFactor="0.99" vaporized=""/>
    <tripinfo id="flow_16_phase1_W_uturn.0" depart="0.00" departLane="W_in_0" departPos="126.68" departSpeed="11.71" departDelay="0.00" arrival="62.00" arrivalLane="S_out_0" arrivalPos="189.60" arrivalSpeed="13.77" duration="62.00" routeLength="261.55" waitingTime="38.00" waitingCount="1" stopTime="0.00" timeLoss="43.33" rerouteNo="0" devices="vehroute_flow_16_phase1_W_uturn.0 tripinfo_flow_16_phase1_W_uturn.0" vType="moto" speedFactor="1.04" vaporized=""/>
    <tripinfo id="flow_4_phase1_N_uturn.0" depart="0.00" departLane="W_in_1" departPos="127.60" departSpeed="0.08" departDelay="0.00" arrival="64.00" arrivalLane="E_out_0" arrivalPos="189.60" arrivalSpeed="12.64" duration="64.00" routeLength="272.40" waitingTime="34.00" waitingCount="1" stopTime="0.00" timeLoss="41.93" rerouteNo="0" devices="vehroute_flow_4_phase1_N_uturn.0 tripinfo_flow_4_phase1_N_uturn.0" vType="car" speedFactor="0.92" vaporized=""/>
    <tripinfo id="flow_2_phase1_N_left.0" depart="0.00" departLane="W_in_1" departPos="8.27" departSpeed="8.33" departDelay="0.00" arrival="65.00" arrivalLane="E_out_1" arrivalPos="189.60" arrivalSpeed="13.67" duration="65.00" routeLength="391.73" waitingTime="28.00" waitingCount="1" stopTime="0.00" timeLoss="36.49" rerouteNo="0" devices="vehroute_flow_2_phase1_N_left.0 tripinfo_flow_2_phase1_N_left.0" vType="moto" speedFactor="1.02" vaporized=""/>
    <tripinfo id="flow_11_phase1_E_right.0" depart="0.00" departLane="E_in_1" departPos="144.95" departSpeed="4.02" departDelay="0.00" arrival="66.00" arrivalLane="N_out_0" arrivalPos="189.60" arrivalSpeed="13.05" duration="66.00" routeLength="243.28" waitingTime="37.00" waitingCount="1" stopTime="0.00" timeLoss="46.90" rerouteNo="0" devices="vehroute_flow_11_phase1_E_right.0 tripinfo_flow_11_phase1_E_right.0" vType="bus" speedFactor="0.96" vaporized=""/>
    <tripinfo id="flow_13_phase1_W_straight.1" depart="14.00" departLane="W_in_1" departPos="121.65" departSpeed="2.86" departDelay="0.62" arrival="66.00" arrivalLane="E_out_1" arrivalPos="189.60" arrivalSpeed="15.33" duration="52.00" routeLength="278.35" waitingTime="23.00" waitingCount="1" stopTime="0.00" timeLoss="33.79" rerouteNo="0" devices="vehroute_flow_13_phase1_W_straight.1 tripinfo_flow_13_phase1_W_straight.1" vType="car" speedFactor="1.12" vaporized=""/>
    <tripinfo id="flow_15_phase1_W_right.0" depart="0.00" departLane="W_in_1" departPos="108.38" departSpeed="1.98" departDelay="0.00" arrival="67.00" arrivalLane="S_out_0" arrivalPos="189.60" arrivalSpeed="11.55" duration="67.00" routeLength="279.85" waitingTime="34.00" waitingCount="1" stopTime="0.00" timeLoss="41.76" rerouteNo="0" devices="vehroute_flow_15_phase1_W_right.0 tripinfo_flow_15_phase1_W_right.0" vType="moto" speedFactor="0.85" vaporized=""/>
    <tripinfo id="flow_11_phase1_E_right.1" depart="33.00" departLane="E_in_1" departPos="128.68" departSpeed="3.06" departDelay="0.51" arrival="70.00" arrivalLane="N_out_0" arrivalPos="189.60" arrivalSpeed="13.80" duration="37.00" routeLength="259.55" waitingTime="7.00" waitingCount="1" stopTime="0.00" timeLoss="18.14" rerouteNo="0" devices="vehroute_flow_11_phase1_E_right.1 tripinfo_flow_11_phase1_E_right.1" vType="moto" speedFactor="1.04" vaporized=""/>
    <tripinfo id="flow_1_phase1_N_straight.0" depart="0.00" departLane="E_in_0" departPos="8.62" departSpeed="8.51" departDelay="0.00" arrival="71.00" arrivalLane="W_out_0" arrivalPos="189.60" arrivalSpeed="11.75" duration="71.00" routeLength="391.38" waitingTime="28.00" waitingCount="1" stopTime="0.00" timeLoss="37.65" rerouteNo="0" devices="vehroute_flow_1_phase1_N_straight.0 tripinfo_flow_1_phase1_N_straight.0" vType="bus" speedFactor="0.86" vaporized=""/>
    <tripinfo id="flow_13_phase1_W_straight.2" depart="27.00" departLane="W_in_1" departPos="59.51" departSpeed="13.32" departDelay="0.23" arrival="72.00" arrivalLane="E_out_1" arrivalPos="189.60" arrivalSpeed="13.04" duration="45.00" routeLength="340.49" waitingTime="8.00" waitingCount="1" stopTime="0.00" timeLoss="19.15" rerouteNo="0" devices="vehroute_flow_13_phase1_W_straight.2 tripinfo_flow_13_phase1_W_straight.2" vType="bus" speedFactor="0.97" vaporized=""/>
    <tripinfo id="flow_1_phase1_N_straight.3" depart="41.00" departLane="E_in_0" departPos="65.01" departSpeed="6.58" departDelay="0.45" arrival="74.00" arrivalLane="W_out_0" arrivalPos="189.60" arrivalSpeed="15.42" duration="33.00" routeLength="334.99" waitingTime="0.00" waitingCount="0" stopTime="0.00" timeLoss="11.96" rerouteNo="0" devices="vehroute_flow_1_phase1_N_straight.3 tripinfo_flow_1_phase1_N_straight.3" vType="moto" speedFactor="1.20" vaporized=""/>
    <tripinfo id="flow_13_phase1_W_straight.3" depart="41.00" departLane="W_in_1" departPos="88.42" departSpeed="1.48" departDelay="0.85" arrival="74.00" arrivalLane="E_out_1" arrivalPos="189.60" arrivalSpeed="13.61" duration="33.00" routeLength="311.58" waitingTime="0.00" waitingCount="0" stopTime="0.00" timeLoss="11.48" rerouteNo="0" devices="vehroute_flow_13_phase1_W_straight.3 tripinfo_flow_13_phase1_W_straight.3" vType="car" speedFactor="1.05" vaporized=""/>
    <tripinfo id="flow_13_phase1_W_straight.0" depart="0.00" departLane="W_in_0" departPos="23.77" departSpeed="1.48" departDelay="0.00" arrival="75.00" arrivalLane="E_out_0" arrivalPos="189.60" arrivalSpeed="11.17" duration="75.00" routeLength="376.23" waitingTime="24.00" waitingCount="1" stopTime="0.00" timeLoss="41.32" rerouteNo="0" devices="vehroute_flow_13_phase1_W_straight.0 tripinfo_flow_13_phase1_W_straight.0" vType="container" speedFactor="0.82" vaporized=""/>
    <tripinfo id="flow_15_phase1_W_right.1" depart="33.00" departLane="W_in_0" departPos="73.90" departSpeed="9.22" departDelay="0.16" arrival="75.00" arrivalLane="S_out_0" arrivalPos="189.60" arrivalSpeed="14.93" duration="42.00" routeLength="314.33" waitingTime="6.00" waitingCount="1" stopTime="0.00" timeLoss="19.78" rerouteNo="0" devices="vehroute_flow_15_phase1_W_right.1 tripinfo_flow_15_phase1_W_right.1" vType="moto" speedFactor="1.08" vaporized=""/>
    <tripinfo id="flow_2_phase1_N_left.1" depart="33.00" departLane="W_in_0" departPos="8.88" departSpeed="2.82" departDelay="0.32" arrival="77.00" arrivalLane="E_out_0" arrivalPos="189.60" arrivalSpeed="15.58" duration="44.00" routeLength="391.12" waitingTime="0.00" waitingCount="0" stopTime="0.00" timeLoss="18.54" rerouteNo="0" devices="vehroute_flow_2_phase1_N_left.1 tripinfo_flow_2_phase1_N_left.1" vType="moto" speedFactor="1.12" vaporized=""/>
    <tripinfo id="flow_1_phase1_N_straight.2" depart="28.00" departLane="E_in_1" departPos="107.53" departSpeed="1.11" departDelay="0.97" arrival="78.00" arrivalLane="W_out_0" arrivalPos="189.60" arrivalSpeed="11.98" duration="50.00" routeLength="292.47" waitingTime="11.00" waitingCount="2" stopTime="0.00" timeLoss="27.26" rerouteNo="0" devices="vehroute_flow_1_phase1_N_straight.2 tripinfo_flow_1_phase1_N_straight.2" vType="moto" speedFactor="0.93" vaporized=""/>
    <tripinfo id="flow_12_phase1_E_uturn.0" depart="0.00" departLane="E_in_0" departPos="129.89" departSpeed="13.76" departDelay="0.00" arrival="79.00" arrivalLane="E_out_1" arrivalPos="189.60" arrivalSpeed="13.82" duration="79.00" routeLength="253.98" waitingTime="47.00" waitingCount="2" stopTime="0.00" timeLoss="59.84" rerouteNo="0" devices="vehroute_flow_12_phase1_E_uturn.0 tripinfo_flow_12_phase1_E_uturn.0" vType="moto" speedFactor="1.03" vaporized=""/>
    <tripinfo id="flow_1_phase1_N_straight.1" depart="14.00" departLane="E_in_1" departPos="58.36" departSpeed="11.64" departDelay="0.48" arrival="81.00" arrivalLane="W_out_1" arrivalPos="189.60" arrivalSpeed="11.99" duration="67.00" routeLength="341.64" waitingTime="26.00" waitingCount="2" stopTime="0.00" timeLoss="37.97" rerouteNo="0" devices="vehroute_flow_1_phase1_N_straight.1 tripinfo_flow_1_phase1_N_straight.1" vType="moto" speedFactor="0.87" vaporized=""/>
    <tripinfo id="flow_13_phase1_W_straight.4" depart="54.00" departLane="W_in_0" departPos="70.46" departSpeed="10.65" departDelay="0.46" arrival="83.00" arrivalLane="E_out_0" arrivalPos="189.60" arrivalSpeed="11.60" duration="29.00" routeLength="329.54" waitingTime="0.00" waitingCount="0" stopTime="0.00" timeLoss="1.01" rerouteNo="0" devices="vehroute_flow_13_phase1_W_straight.4 tripinfo_flow_13_phase1_W_straight.4" vType="bus" speedFactor="0.87" vaporized=""/>
    <tripinfo id="flow_8_phase1_S_uturn.0" depart="0.00" departLane="E_in_0" departPos="120.11" departSpeed="4.48" departDelay="0.00" arrival="85.00" arrivalLane="S_out_1" arrivalPos="189.60" arrivalSpeed="14.13" duration="85.00" routeLength="278.44" waitingTime="46.00" waitingCount="3" stopTime="0.00" timeLoss="64.59" rerouteNo="0" devices="vehroute_flow_8_phase1_S_uturn.0 tripinfo_flow_8_phase1_S_uturn.0" vType="moto" speedFactor="1.05" vaporized=""/>
    <tripinfo id="flow_5_phase1_S_straight.3" depart="40.00" departLane="S_in_0" departPos="184.19" departSpeed="8.58" departDelay="0.31" arrival="88.00" arrivalLane="N_out_0" arrivalPos="189.60" arrivalSpeed="13.98" duration="48.00" routeLength="215.81" waitingTime="28.00" waitingCount="1" stopTime="0.00" timeLoss="33.26" rerouteNo="0" devices="vehroute_flow_5_phase1_S_straight.3 tripinfo_flow_5_phase1_S_straight.3" vType="moto" speedFactor="1.08" vaporized=""/>
    <tripinfo id="flow_6_phase1_S_left.1" depart="34.00" departLane="S_in_1" departPos="79.10" departSpeed="11.99" departDelay="0.55" arrival="89.00" arrivalLane="W_out_1" arrivalPos="189.60" arrivalSpeed="13.33" duration="55.00" routeLength="319.45" waitingTime="26.00" waitingCount="1" stopTime="0.00" timeLoss="31.63" rerouteNo="0" devices="vehroute_flow_6_phase1_S_left.1 tripinfo_flow_6_phase1_S_left.1" vType="moto" speedFactor="1.05" vaporized=""/>
    <tripinfo id="flow_5_phase1_S_straight.4" depart="53.00" departLane="S_in_0" departPos="135.24" departSpeed="1.68" departDelay="0.08" arrival="99.00" arrivalLane="N_out_1" arrivalPos="189.60" arrivalSpeed="12.88" duration="46.00" routeLength="264.76" waitingTime="5.00" waitingCount="1" stopTime="0.00" timeLoss="25.54" rerouteNo="0" devices="vehroute_flow_5_phase1_S_straight.4 tripinfo_flow_5_phase1_S_straight.4" vType="container" speedFactor="0.97" vaporized=""/>
    <tripinfo id="flow_7_phase1_S_right.1" depart="33.00" departLane="S_in_1" departPos="66.71" departSpeed="7.87" departDelay="0.51" arrival="101.00" arrivalLane="E_out_0" arrivalPos="189.60" arrivalSpeed="10.30" duration="68.00" routeLength="321.52" waitingTime="25.00" waitingCount="1" stopTime="0.00" timeLoss="36.80" rerouteNo="0" devices="vehroute_flow_7_phase1_S_right.1 tripinfo_flow_7_phase1_S_right.1" vType="container" speedFactor="0.78" vaporized=""/>
    <tripinfo id="flow_16_phase1_W_uturn.1" depart="67.00" departLane="W_in_1" departPos="155.35" departSpeed="12.29" departDelay="0.80" arrival="101.00" arrivalLane="S_out_0" arrivalPos="189.60" arrivalSpeed="13.34" duration="34.00" routeLength="232.88" waitingTime="10.00" waitingCount="1" stopTime="0.00" timeLoss="17.22" rerouteNo="0" devices="vehroute_flow_16_phase1_W_uturn.1 tripinfo_flow_16_phase1_W_uturn.1" vType="moto" speedFactor="1.04" vaporized=""/>
    <tripinfo id="flow_4_phase1_N_uturn.1" depart="67.00" departLane="W_in_0" departPos="91.52" departSpeed="11.56" departDelay="0.96" arrival="105.00" arrivalLane="E_out_0" arrivalPos="189.60" arrivalSpeed="12.05" duration="38.00" routeLength="308.48" waitingTime="7.00" waitingCount="1" stopTime="0.00" timeLoss="13.91" rerouteNo="0" devices="vehroute_flow_4_phase1_N_uturn.1 tripinfo_flow_4_phase1_N_uturn.1" vType="moto" speedFactor="0.94" vaporized=""/>
    <tripinfo id="flow_2_phase1_N_left.2" depart="66.00" departLane="W_in_1" departPos="129.09" departSpeed="5.80" departDelay="0.64" arrival="106.00" arrivalLane="E_out_0" arrivalPos="189.60" arrivalSpeed="14.75" duration="40.00" routeLength="270.91" waitingTime="13.00" waitingCount="2" stopTime="0.00" timeLoss="22.06" rerouteNo="0" devices="vehroute_flow_2_phase1_N_left.2 tripinfo_flow_2_phase1_N_left.2" vType="emergency" speedFactor="1.10" vaporized=""/>
    <tripinfo id="flow_15_phase1_W_right.2" depart="66.00" departLane="W_in_1" departPos="2.77" departSpeed="6.78" departDelay="0.32" arrival="107.00" arrivalLane="S_out_0" arrivalPos="189.60" arrivalSpeed="11.62" duration="41.00" routeLength="385.46" waitingTime="1.00" waitingCount="1" stopTime="0.00" timeLoss="8.39" rerouteNo="0" devices="vehroute_flow_15_phase1_W_right.2 tripinfo_flow_15_phase1_W_right.2" vType="moto" speedFactor="0.89" vaporized=""/>
    <tripinfo id="flow_14_phase1_W_left.1" depart="35.00" departLane="N_in_0" departPos="93.41" departSpeed="11.76" departDelay="0.53" arrival="109.00" arrivalLane="E_out_1" arrivalPos="189.60" arrivalSpeed="12.46" duration="74.00" routeLength="305.14" waitingTime="32.00" waitingCount="2" stopTime="0.00" timeLoss="48.71" rerouteNo="0" devices="vehroute_flow_14_phase1_W_left.1 tripinfo_flow_14_phase1_W_left.1" vType="container" speedFactor="0.91" vaporized=""/>
    <tripinfo id="flow_13_phase1_W_straight.5" depart="67.00" departLane="W_in_0" departPos="78.09" departSpeed="11.22" departDelay="0.08" arrival="111.00" arrivalLane="E_out_1" arrivalPos="189.60" arrivalSpeed="14.91" duration="44.00" routeLength="321.91" waitingTime="8.00" waitingCount="2" stopTime="0.00" timeLoss="23.28" rerouteNo="0" devices="vehroute_flow_13_phase1_W_straight.5 tripinfo_flow_13_phase1_W_straight.5" vType="moto" speedFactor="1.14" vaporized=""/>
    <tripinfo id="flow_13_phase1_W_straight.6" depart="81.00" departLane="W_in_1" departPos="109.89" departSpeed="2.14" departDelay="0.70" arrival="111.00" arrivalLane="E_out_0" arrivalPos="189.60" arrivalSpeed="13.03" duration="30.00" routeLength="290.11" waitingTime="0.00" waitingCount="0" stopTime="0.00" timeLoss="7.85" rerouteNo="0" devices="vehroute_flow_13_phase1_W_straight.6 tripinfo_flow_13_phase1_W_straight.6" vType="car" speedFactor="0.98" vaporized=""/>
    <tripinfo id="flow_7_phase1_S_right.2" depart="65.00" departLane="S_in_1" departPos="160.30" departSpeed="6.02" departDelay="0.01" arrival="114.00" arrivalLane="E_out_0" arrivalPos="189.60" arrivalSpeed="13.34" duration="49.00" routeLength="227.93" waitingTime="17.00" waitingCount="2" stopTime="0.00" timeLoss="32.52" rerouteNo="0" devices="vehroute_flow_7_phase1_S_right.2 tripinfo_flow_7_phase1_S_right.2" vType="moto" speedFactor="1.03" vaporized=""/>
    <tripinfo id="flow_3_phase1_N_right.2" depart="69.00" departLane="S_in_0" departPos="87.76" departSpeed="12.03" departDelay="0.63" arrival="116.00" arrivalLane="E_out_0" arrivalPos="189.60" arrivalSpeed="14.81" duration="47.00" routeLength="300.47" waitingTime="14.00" waitingCount="1" stopTime="0.00" timeLoss="26.28" rerouteNo="0" devices="vehroute_flow_3_phase1_N_right.2 tripinfo_flow_3_phase1_N_right.2" vType="moto" speedFactor="1.10" vaporized=""/>
    <tripinfo id="flow_5_phase1_S_straight.6" depart="80.00" departLane="S_in_0" departPos="69.49" departSpeed="6.79" departDelay="0.62" arrival="117.00" arrivalLane="N_out_0" arrivalPos="189.60" arrivalSpeed="15.01" duration="37.00" routeLength="330.51" waitingTime="5.00" waitingCount="1" stopTime="0.00" timeLoss="15.13" rerouteNo="0" devices="vehroute_flow_5_phase1_S_straight.6 tripinfo_flow_5_phase1_S_straight.6" vType="moto" speedFactor="1.10" vaporized=""/>
    <tripinfo id="flow_10_phase1_E_left.0" depart="0.00" departLane="E_in_0" departPos="44.88" departSpeed="7.69" departDelay="0.00" arrival="118.00" arrivalLane="E_out_1" arrivalPos="189.60" arrivalSpeed="14.11" duration="118.00" routeLength="338.99" waitingTime="69.00" waitingCount="4" stopTime="0.00" timeLoss="92.65" rerouteNo="0" devices="vehroute_flow_10_phase1_E_left.0 tripinfo_flow_10_phase1_E_left.0" vType="truck" speedFactor="1.02" vaporized=""/>
    <tripinfo id="flow_5_phase1_S_straight.5" depart="67.00" departLane="S_in_1" departPos="65.57" departSpeed="2.39" departDelay="0.85" arrival="118.00" arrivalLane="N_out_1" arrivalPos="189.60" arrivalSpeed="13.63" duration="51.00" routeLength="334.43" waitingTime="14.00" waitingCount="2" stopTime="0.00" timeLoss="27.40" rerouteNo="0" devices="vehroute_flow_5_phase1_S_straight.5 tripinfo_flow_5_phase1_S_straight.5" vType="moto" speedFactor="1.03" vaporized=""/>
    <tripinfo id="flow_6_phase1_S_left.2" depart="67.00" departLane="S_in_0" departPos="64.25" departSpeed="5.83" departDelay="0.10" arrival="120.00" arrivalLane="W_out_1" arrivalPos="189.60" arrivalSpeed="12.37" duration="53.00" routeLength="334.30" waitingTime="14.00" waitingCount="1" stopTime="0.00" timeLoss="25.23" rerouteNo="0" devices="vehroute_flow_6_phase1_S_left.2 tripinfo_flow_6_phase1_S_left.2" vType="truck" speedFactor="0.89" vaporized=""/>
    <tripinfo id="flow_5_phase1_S_straight.7" depart="93.00" departLane="S_in_0" departPos="60.83" departSpeed="11.55" departDelay="0.39" arrival="122.00" arrivalLane="N_out_0" arrivalPos="189.60" arrivalSpeed="12.16" duration="29.00" routeLength="339.17" waitingTime="0.00" waitingCount="0" stopTime="0.00" timeLoss="1.50" rerouteNo="0" devices="vehroute_flow_5_phase1_S_straight.7 tripinfo_flow_5_phase1_S_straight.7" vType="bus" speedFactor="0.90" vaporized=""/>
    <tripinfo id="flow_7_phase1_S_right.3" depart="98.00" departLane="S_in_1" departPos="107.80" departSpeed="13.63" departDelay="0.52" arrival="123.00" arrivalLane="E_out_0" arrivalPos="189.60" arrivalSpeed="14.80" duration="25.00" routeLength="280.43" waitingTime="0.00" waitingCount="0" stopTime="0.00" timeLoss="5.06" rerouteNo="0" devices="vehroute_flow_7_phase1_S_right.3 tripinfo_flow_7_phase1_S_right.3" vType="moto" speedFactor="1.07" vaporized=""/>
    <tripinfo id="flow_11_phase1_E_right.2" depart="65.00" departLane="E_in_1" departPos="111.69" departSpeed="6.85" departDelay="0.02" arrival="127.00" arrivalLane="N_out_0" arrivalPos="189.60" arrivalSpeed="14.99" duration="62.00" routeLength="276.54" waitingTime="30.00" waitingCount="2" stopTime="0.00" timeLoss="43.81" rerouteNo="0" devices="vehroute_flow_11_phase1_E_right.2 tripinfo_flow_11_phase1_E_right.2" vType="moto" speedFactor="1.14" vaporized=""/>
    <tripinfo id="flow_9_phase1_E_straight.3" depart="39.00" departLane="N_in_0" departPos="86.42" departSpeed="8.41" departDelay="0.37" arrival="128.00" arrivalLane="N_out_0" arrivalPos="189.60" arrivalSpeed="11.45" duration="89.00" routeLength="297.45" waitingTime="40.00" waitingCount="4" stopTime="0.00" timeLoss="62.58" rerouteNo="0" devices="vehroute_flow_9_phase1_E_straight.3 tripinfo_flow_9_phase1_E_straight.3" vType="bus" speedFactor="0.85" vaporized=""/>
    <tripinfo id="flow_1_phase1_N_straight.7" depart="95.00" departLane="E_in_0" departPos="178.36" departSpeed="3.52" departDelay="0.39" arrival="128.00" arrivalLane="W_out_0" arrivalPos="189.60" arrivalSpeed="13.74" duration="33.00" routeLength="221.64" waitingTime="10.00" waitingCount="1" stopTime="0.00" timeLoss="17.32" rerouteNo="0" devices="vehroute_flow_1_phase1_N_straight.7 tripinfo_flow_1_phase1_N_straight.7" vType="moto" speedFactor="1.06" vaporized=""/>
    <tripinfo id="flow_15_phase1_W_right.3" depart="99.00" departLane="W_in_0" departPos="1.39" departSpeed="7.29" departDelay="0.49" arrival="128.00" arrivalLane="S_out_0" arrivalPos="189.60" arrivalSpeed="14.88" duration="29.00" routeLength="386.84" waitingTime="0.00" waitingCount="0" stopTime="0.00" timeLoss="3.98" rerouteNo="0" devices="vehroute_flow_15_phase1_W_right.3 tripinfo_flow_15_phase1_W_right.3" vType="moto" speedFactor="1.17" vaporized=""/>
    <tripinfo id="flow_2_phase1_N_left.3" depart="99.00" departLane="W_in_1" departPos="126.29" departSpeed="0.43" departDelay="0.96" arrival="130.00" arrivalLane="E_out_0" arrivalPos="189.60" arrivalSpeed="11.63" duration="31.00" routeLength="273.71" waitingTime="0.00" waitingCount="0" stopTime="0.00" timeLoss="8.56" rerouteNo="0" devices="vehroute_flow_2_phase1_N_left.3 tripinfo_flow_2_phase1_N_left.3" vType="moto" speedFactor="0.89" vaporized=""/>
    <tripinfo id="flow_13_phase1_W_straight.7" depart="94.00" departLane="W_in_1" departPos="88.32" departSpeed="9.46" departDelay="0.31" arrival="132.00" arrivalLane="E_out_0" arrivalPos="189.60" arrivalSpeed="10.20" duration="38.00" routeLength="311.68" waitingTime="2.00" waitingCount="1" stopTime="0.00" timeLoss="9.75" rerouteNo="0" devices="vehroute_flow_13_phase1_W_straight.7 tripinfo_flow_13_phase1_W_straight.7" vType="moto" speedFactor="0.80" vaporized=""/>
    <tripinfo id="flow_1_phase1_N_straight.5" depart="68.00" departLane="E_in_0" departPos="92.42" departSpeed="12.50" departDelay="0.42" arrival="133.00" arrivalLane="W_out_0" arrivalPos="189.60" arrivalSpeed="12.34" duration="65.00" routeLength="307.58" waitingTime="29.00" waitingCount="2" stopTime="0.00" timeLoss="40.46" rerouteNo="0" devices="vehroute_flow_1_phase1_N_straight.5 tripinfo_flow_1_phase1_N_straight.5" vType="moto" speedFactor="0.90" vaporized=""/>
    <tripinfo id="flow_1_phase1_N_straight.6" depart="82.00" departLane="E_in_1" departPos="21.74" departSpeed="10.75" departDelay="0.90" arrival="135.00" arrivalLane="W_out_0" arrivalPos="189.60" arrivalSpeed="13.31" duration="53.00" routeLength="378.26" waitingTime="7.00" waitingCount="2" stopTime="0.00" timeLoss="24.60" rerouteNo="0" devices="vehroute_flow_1_phase1_N_straight.6 tripinfo_flow_1_phase1_N_straight.6" vType="car" speedFactor="0.98" vaporized=""/>
    <tripinfo id="flow_12_phase1_E_uturn.1" depart="66.00" departLane="E_in_0" departPos="155.68" departSpeed="8.48" departDelay="0.19" arrival="138.00" arrivalLane="E_out_1" arrivalPos="189.60" arrivalSpeed="12.54" duration="72.00" routeLength="228.19" waitingTime="38.00" waitingCount="3" stopTime="0.00" timeLoss="53.54" rerouteNo="0" devices="vehroute_flow_12_phase1_E_uturn.1 tripinfo_flow_12_phase1_E_uturn.1" vType="moto" speedFactor="0.95" vaporized=""/>
    <tripinfo id="flow_10_phase1_E_left.1" depart="34.00" departLane="E_in_0" departPos="4.52" departSpeed="10.41" departDelay="0.50" arrival="139.00" arrivalLane="E_out_0" arrivalPos="189.60" arrivalSpeed="9.96" duration="105.00" routeLength="379.35" waitingTime="39.00" waitingCount="5" stopTime="0.00" timeLoss="67.55" rerouteNo="0" devices="vehroute_flow_10_phase1_E_left.1 tripinfo_flow_10_phase1_E_left.1" vType="truck" speedFactor="0.77" vaporized=""/>
    <tripinfo id="flow_6_phase1_S_left.3" depart="101.00" departLane="S_in_0" departPos="81.58" departSpeed="1.30" departDelay="0.64" arrival="140.00" arrivalLane="W_out_1" arrivalPos="189.60" arrivalSpeed="14.90" duration="39.00" routeLength="316.97" waitingTime="8.00" waitingCount="1" stopTime="0.00" timeLoss="16.93" rerouteNo="0" devices="vehroute_flow_6_phase1_S_left.3 tripinfo_flow_6_phase1_S_left.3" vType="car" speedFactor="1.10" vaporized=""/>
    <tripinfo id="flow_5_phase1_S_straight.8" depart="106.00" departLane="S_in_1" departPos="42.08" departSpeed="14.31" departDelay="0.16" arrival="140.00" arrivalLane="N_out_0" arrivalPos="189.60" arrivalSpeed="15.76" duration="34.00" routeLength="357.92" waitingTime="4.00" waitingCount="1" stopTime="0.00" timeLoss="10.95" rerouteNo="0" devices="vehroute_flow_5_phase1_S_straight.8 tripinfo_flow_5_phase1_S_straight.8" vType="emergency" speedFactor="1.14" vaporized=""/>
    <tripinfo id="flow_3_phase1_N_right.3" depart="103.00" departLane="S_in_0" departPos="74.79" departSpeed="13.13" departDelay="0.45" arrival="141.00" arrivalLane="E_out_0" arrivalPos="189.60" arrivalSpeed="12.55" duration="38.00" routeLength="313.44" waitingTime="7.00" waitingCount="1" stopTime="0.00" timeLoss="13.34" rerouteNo="0" devices="vehroute_flow_3_phase1_N_right.3 tripinfo_flow_3_phase1_N_right.3" vType="moto" speedFactor="0.96" vaporized=""/>