<?xml version="1.0" encoding="UTF-8"?>

<!-- generated on 2025-12-08 21:24:53 by Eclipse SUMO sumo Version 1.18.0
<configuration xmlns:xsi="http://www.w3.org/2001/XMLSchema-instance" xsi:noNamespaceSchemaLocation="http://sumo.dlr.de/xsd/sumoConfiguration.xsd">

    <input>
        <net-file value="/workspace/nets/60p2k/net.net.xml"/>
        <route-files value="/workspace/nets/60p2k/route_temp_244_130720908769792_63793894.rou.xml"/>
    </input>

    <output>
        <summary-output value="results/summary_ep_9.xml"/>
        <tripinfo-output value="results/tripinfo_ep_9.xml"/>
        <vehroute-output value="results/vehroute_ep_9.xml"/>
    </output>

    <time>
        <begin value="0"/>
    </time>

    <report>
        <verbose value="true"/>
        <no-step-log value="true"/>
    </report>

    <traci_server>
        <remote-port value="49435"/>
    </traci_server>

    <gui_only>
        <gui-settings-file value="/workspace/nets/60p2k/gui-settings.xml"/>
        <quit-on-end value="true"/>
    </gui_only>

</configuration>
-->

<tripinfos xmlns:xsi="http://www.w3.org/2001/XMLSchema-instance" xsi:noNamespaceSchemaLocation="http://sumo.dlr.de/xsd/tripinfo_file.xsd">
    <tripinfo id="flow_5_phase1_S_straight.0" depart="0.00" departLane="S_in_1" departPos="107.37" departSpeed="7.21" departDelay="0.00" arrival="21.00" arrivalLane="N_out_1" arrivalPos="189.60" arrivalSpeed="15.92" duration="21.00" routeLength="292.63" waitingTime="0.00" waitingCount="0" stopTime="0.00" timeLoss="2.08" rerouteNo="0" devices="vehroute_flow_5_phase1_S_straight.0 tripinfo_flow_5_phase1_S_straight.0" vType="moto" speedFactor="1.15" vaporized=""/>
    <tripinfo id="flow_8_phase1_S_uturn.0" depart="0.00" departLane="S_in_0" departPos="120.11" departSpeed="4.48" departDelay="0.00" arrival="24.00" arrivalLane="E_out_0" arrivalPos="189.60" arrivalSpeed="13.73" duration="24.00" routeLength="268.12" waitingTime="0.00" waitingCount="0" stopTime="0.00" timeLoss="4.61" rerouteNo="0" devices="vehroute_flow_8_phase1_S_uturn.0 tripinfo_flow_8_phase1_S_uturn.0" vType="moto" speedFactor="1.05" vaporized=""/>
    <tripinfo id="flow_6_phase1_S_left.0" depart="0.00" departLane="S_in_1" departPos="166.01" departSpeed="0.74" departDelay="0.00" arrival="25.00" arrivalLane="W_out_1" arrivalPos="189.60" arrivalSpeed="12.05" duration="25.00" routeLength="232.54" waitingTime="0.00" waitingCount="0" stopTime="0.00" timeLoss="4.21" rerouteNo="0" devices="vehroute_flow_6_phase1_S_left.0 tripinfo_flow_6_phase1_S_left.0" vType="moto" speedFactor="0.88" vaporized=""/>
    <tripinfo id="flow_3_phase1_N_right.0" depart="0.00" departLane="N_in_0" departPos="103.38" departSpeed="3.75" departDelay="0.00" arrival="26.00" arrivalLane="N_out_1" arrivalPos="189.60" arrivalSpeed="13.86" duration="26.00" routeLength="280.49" waitingTime="0.00" waitingCount="0" stopTime="0.00" timeLoss="6.63" rerouteNo="0" devices="vehroute_flow_3_phase1_N_right.0 tripinfo_flow_3_phase1_N_right.0" vType="car" speedFactor="1.09" vaporized=""/>
    <tripinfo id="flow_2_phase1_N_left.0" depart="0.00" departLane="N_in_1" departPos="8.27" departSpeed="8.33" departDelay="0.00" arrival="31.00" arrivalLane="E_out_1" arrivalPos="189.60" arrivalSpeed="13.89" duration="31.00" routeLength="390.28" waitingTime="0.00" waitingCount="0" stopTime="0.00" timeLoss="2.67" rerouteNo="0" devices="vehroute_flow_2_phase1_N_left.0 tripinfo_flow_2_phase1_N_left.0" vType="moto" speedFactor="1.02" vaporized=""/>
    <tripinfo id="flow_10_phase1_E_left.0" depart="0.00" departLane="S_in_0" departPos="44.88" departSpeed="7.69" departDelay="0.00" arrival="31.00" arrivalLane="E_out_0" arrivalPos="189.60" arrivalSpeed="13.57" duration="31.00" routeLength="343.35" waitingTime="0.00" waitingCount="0" stopTime="0.00" timeLoss="5.01" rerouteNo="0" devices="vehroute_flow_10_phase1_E_left.0 tripinfo_flow_10_phase1_E_left.0" vType="truck" speedFactor="1.02" vaporized=""/>
    <tripinfo id="flow_4_phase1_N_uturn.0" depart="0.00" departLane="E_in_1" departPos="127.60" departSpeed="0.08" departDelay="0.00" arrival="37.00" arrivalLane="S_out_1" arrivalPos="189.60" arrivalSpeed="11.92" duration="37.00" routeLength="270.95" waitingTime="7.00" waitingCount="1" stopTime="0.00" timeLoss="15.06" rerouteNo="0" devices="vehroute_flow_4_phase1_N_uturn.0 tripinfo_flow_4_phase1_N_uturn.0" vType="car" speedFactor="0.92" vaporized=""/>
    <tripinfo id="flow_16_phase1_W_uturn.0" depart="0.00" departLane="W_in_0" departPos="135.67" departSpeed="9.64" departDelay="0.00" arrival="37.00" arrivalLane="W_out_1" arrivalPos="189.60" arrivalSpeed="14.32" duration="37.00" routeLength="248.20" waitingTime="11.00" waitingCount="1" stopTime="0.00" timeLoss="18.41" rerouteNo="0" devices="vehroute_flow_16_phase1_W_uturn.0 tripinfo_flow_16_phase1_W_uturn.0" vType="moto" speedFactor="1.04" vaporized=""/>
    <tripinfo id="flow_15_phase1_W_right.0" depart="0.00" departLane="W_in_1" departPos="153.90" departSpeed="6.73" departDelay="0.00" arrival="39.00" arrivalLane="S_out_0" arrivalPos="189.60" arrivalSpeed="10.73" duration="39.00" routeLength="234.33" waitingTime="11.00" waitingCount="1" stopTime="0.00" timeLoss="17.61" rerouteNo="0" devices="vehroute_flow_15_phase1_W_right.0 tripinfo_flow_15_phase1_W_right.0" vType="moto" speedFactor="0.85" vaporized=""/>
    <tripinfo id="flow_9_phase1_E_straight.0" depart="0.00" departLane="E_in_0" departPos="168.29" departSpeed="9.83" departDelay="0.00" arrival="41.00" arrivalLane="W_out_0" arrivalPos="189.60" arrivalSpeed="12.08" duration="41.00" routeLength="231.71" waitingTime="12.00" waitingCount="1" stopTime="0.00" timeLoss="22.30" rerouteNo="0" devices="vehroute_flow_9_phase1_E_straight.0 tripinfo_flow_9_phase1_E_straight.0" vType="truck" speedFactor="0.90" vaporized=""/>
    <tripinfo id="flow_11_phase1_E_right.0" depart="0.00" departLane="E_in_1" departPos="144.95" departSpeed="4.02" departDelay="0.00" arrival="42.00" arrivalLane="N_out_0" arrivalPos="189.60" arrivalSpeed="12.61" duration="42.00" routeLength="243.28" waitingTime="11.00" waitingCount="1" stopTime="0.00" timeLoss="22.76" rerouteNo="0" devices="vehroute_flow_11_phase1_E_right.0 tripinfo_flow_11_phase1_E_right.0" vType="bus" speedFactor="0.96" vaporized=""/>
    <tripinfo id="flow_12_phase1_E_uturn.0" depart="0.00" departLane="W_in_0" departPos="5.65" departSpeed="13.76" departDelay="0.00" arrival="42.00" arrivalLane="N_out_1" arrivalPos="189.60" arrivalSpeed="13.19" duration="42.00" routeLength="392.90" waitingTime="2.00" waitingCount="1" stopTime="0.00" timeLoss="13.72" rerouteNo="0" devices="vehroute_flow_12_phase1_E_uturn.0 tripinfo_flow_12_phase1_E_uturn.0" vType="moto" speedFactor="1.03" vaporized=""/>
    <tripinfo id="flow_14_phase1_W_left.0" depart="0.00" departLane="W_in_1" departPos="42.31" departSpeed="3.71" departDelay="0.00" arrival="45.00" arrivalLane="N_out_1" arrivalPos="189.60" arrivalSpeed="13.71" duration="45.00" routeLength="356.24" waitingTime="2.00" waitingCount="1" stopTime="0.00" timeLoss="18.77" rerouteNo="0" devices="vehroute_flow_14_phase1_W_left.0 tripinfo_flow_14_phase1_W_left.0" vType="moto" speedFactor="1.01" vaporized=""/>
    <tripinfo id="flow_13_phase1_W_straight.0" depart="0.00" departLane="E_in_0" departPos="77.99" departSpeed="3.79" departDelay="0.00" arrival="46.00" arrivalLane="S_out_1" arrivalPos="189.60" arrivalSpeed="11.33" duration="46.00" routeLength="320.56" waitingTime="2.00" waitingCount="1" stopTime="0.00" timeLoss="16.46" rerouteNo="0" devices="vehroute_flow_13_phase1_W_straight.0 tripinfo_flow_13_phase1_W_straight.0" vType="container" speedFactor="0.82" vaporized=""/>
    <tripinfo id="flow_1_phase1_N_straight.0" depart="0.00" departLane="E_in_0" departPos="8.62" departSpeed="8.51" departDelay="0.00" arrival="48.00" arrivalLane="S_out_1" arrivalPos="189.60" arrivalSpeed="11.48" duration="48.00" routeLength="389.93" waitingTime="0.00" waitingCount="0" stopTime="0.00" timeLoss="14.36" rerouteNo="0" devices="vehroute_flow_1_phase1_N_straight.0 tripinfo_flow_1_phase1_N_straight.0" vType="bus" speedFactor="0.86" vaporized=""/>
    <tripinfo id="flow_5_phase1_S_straight.1" depart="14.00" departLane="S_in_1" departPos="121.65" departSpeed="2.93" departDelay="0.77" arrival="48.00" arrivalLane="N_out_1" arrivalPos="189.60" arrivalSpeed="15.33" duration="34.00" routeLength="278.35" waitingTime="6.00" waitingCount="1" stopTime="0.00" timeLoss="15.83" rerouteNo="0" devices="vehroute_flow_5_phase1_S_straight.1 tripinfo_flow_5_phase1_S_straight.1" vType="moto" speedFactor="1.19" vaporized=""/>
    <tripinfo id="flow_6_phase1_S_left.1" depart="34.00" departLane="S_in_1" departPos="185.21" departSpeed="4.39" departDelay="0.55" arrival="52.00" arrivalLane="W_out_1" arrivalPos="189.60" arrivalSpeed="13.37" duration="18.00" routeLength="213.34" waitingTime="0.00" waitingCount="0" stopTime="0.00" timeLoss="1.69" rerouteNo="0" devices="vehroute_flow_6_phase1_S_left.1 tripinfo_flow_6_phase1_S_left.1" vType="moto" speedFactor="1.05" vaporized=""/>
    <tripinfo id="flow_5_phase1_S_straight.2" depart="27.00" departLane="S_in_1" departPos="59.51" departSpeed="13.27" departDelay="0.54" arrival="54.00" arrivalLane="N_out_1" arrivalPos="189.60" arrivalSpeed="13.07" duration="27.00" routeLength="340.49" waitingTime="0.00" waitingCount="0" stopTime="0.00" timeLoss="1.15" rerouteNo="0" devices="vehroute_flow_5_phase1_S_straight.2 tripinfo_flow_5_phase1_S_straight.2" vType="moto" speedFactor="0.96" vaporized=""/>
    <tripinfo id="flow_7_phase1_S_right.0" depart="0.00" departLane="S_in_0" departPos="8.76" departSpeed="8.07" departDelay="0.00" arrival="59.00" arrivalLane="E_out_0" arrivalPos="189.60" arrivalSpeed="11.50" duration="59.00" routeLength="379.47" waitingTime="12.00" waitingCount="1" stopTime="0.00" timeLoss="25.29" rerouteNo="0" devices="vehroute_flow_7_phase1_S_right.0 tripinfo_flow_7_phase1_S_right.0" vType="container" speedFactor="0.85" vaporized=""/>
    <tripinfo id="flow_3_phase1_N_right.1" depart="35.00" departLane="N_in_1" departPos="175.36" departSpeed="7.65" departDelay="0.82" arrival="59.00" arrivalLane="N_out_1" arrivalPos="189.60" arrivalSpeed="12.23" duration="24.00" routeLength="208.51" waitingTime="1.00" waitingCount="1" stopTime="0.00" timeLoss="5.35" rerouteNo="0" devices="vehroute_flow_3_phase1_N_right.1 tripinfo_flow_3_phase1_N_right.1" vType="moto" speedFactor="0.88" vaporized=""/>
    <tripinfo id="flow_15_phase1_W_right.1" depart="33.00" departLane="W_in_1" departPos="110.92" departSpeed="12.38" departDelay="0.16" arrival="60.00" arrivalLane="S_out_0" arrivalPos="189.60" arrivalSpeed="14.19" duration="27.00" routeLength="277.31" waitingTime="2.00" waitingCount="1" stopTime="0.00" timeLoss="7.86" rerouteNo="0" devices="vehroute_flow_15_phase1_W_right.1 tripinfo_flow_15_phase1_W_right.1" vType="moto" speedFactor="1.08" vaporized=""/>
    <tripinfo id="flow_9_phase1_E_straight.1" depart="13.00" departLane="E_in_1" departPos="58.36" departSpeed="11.07" departDelay="0.12" arrival="61.00" arrivalLane="W_out_0" arrivalPos="189.60" arrivalSpeed="15.18" duration="48.00" routeLength="341.64" waitingTime="12.00" waitingCount="1" stopTime="0.00" timeLoss="26.33" rerouteNo="0" devices="vehroute_flow_9_phase1_E_straight.1 tripinfo_flow_9_phase1_E_straight.1" vType="moto" speedFactor="1.16" vaporized=""/>
    <tripinfo id="flow_13_phase1_W_straight.1" depart="14.00" departLane="E_in_1" departPos="52.87" departSpeed="0.43" departDelay="0.62" arrival="61.00" arrivalLane="S_out_1" arrivalPos="189.60" arrivalSpeed="14.84" duration="47.00" routeLength="345.68" waitingTime="9.00" waitingCount="1" stopTime="0.00" timeLoss="23.55" rerouteNo="0" devices="vehroute_flow_13_phase1_W_straight.1 tripinfo_flow_13_phase1_W_straight.1" vType="car" speedFactor="1.12" vaporized=""/>
    <tripinfo id="flow_11_phase1_E_right.1" depart="33.00" departLane="E_in_0" departPos="73.90" departSpeed="8.86" departDelay="0.51" arrival="63.00" arrivalLane="N_out_0" arrivalPos="189.60" arrivalSpeed="14.09" duration="30.00" routeLength="314.33" waitingTime="0.00" waitingCount="0" stopTime="0.00" timeLoss="7.08" rerouteNo="0" devices="vehroute_flow_11_phase1_E_right.1 tripinfo_flow_11_phase1_E_right.1" vType="moto" speedFactor="1.04" vaporized=""/>
    <tripinfo id="flow_9_phase1_E_straight.2" depart="26.00" departLane="E_in_1" departPos="12.70" departSpeed="12.82" departDelay="0.25" arrival="66.00" arrivalLane="W_out_0" arrivalPos="189.60" arrivalSpeed="13.54" duration="40.00" routeLength="387.30" waitingTime="0.00" waitingCount="0" stopTime="0.00" timeLoss="11.65" rerouteNo="0" devices="vehroute_flow_9_phase1_E_straight.2 tripinfo_flow_9_phase1_E_straight.2" vType="moto" speedFactor="0.99" vaporized=""/>
    <tripinfo id="flow_1_phase1_N_straight.1" depart="14.00" departLane="E_in_1" departPos="31.93" departSpeed="7.04" departDelay="0.48" arrival="67.00" arrivalLane="S_out_1" arrivalPos="189.60" arrivalSpeed="11.66" duration="53.00" routeLength="366.62" waitingTime="9.00" waitingCount="1" stopTime="0.00" timeLoss="21.51" rerouteNo="0" devices="vehroute_flow_1_phase1_N_straight.1 tripinfo_flow_1_phase1_N_straight.1" vType="moto" speedFactor="0.87" vaporized=""/>
    <tripinfo id="flow_13_phase1_W_straight.2" depart="27.00" departLane="E_in_1" departPos="107.53" departSpeed="1.15" departDelay="0.23" arrival="69.00" arrivalLane="S_out_1" arrivalPos="189.60" arrivalSpeed="12.79" duration="42.00" routeLength="291.02" waitingTime="4.00" waitingCount="1" stopTime="0.00" timeLoss="19.59" rerouteNo="0" devices="vehroute_flow_13_phase1_W_straight.2 tripinfo_flow_13_phase1_W_straight.2" vType="bus" speedFactor="0.97" vaporized=""/>
    <tripinfo id="flow_9_phase1_E_straight.3" depart="39.00" departLane="E_in_0" departPos="56.18" departSpeed="6.79" departDelay="0.37" arrival="70.00" arrivalLane="W_out_0" arrivalPos="189.60" arrivalSpeed="11.31" duration="31.00" routeLength="343.82" waitingTime="0.00" waitingCount="0" stopTime="0.00" timeLoss="1.83" rerouteNo="0" devices="vehroute_flow_9_phase1_E_straight.3 tripinfo_flow_9_phase1_E_straight.3" vType="bus" speedFactor="0.85" vaporized=""/>
    <tripinfo id="flow_1_phase1_N_straight.2" depart="28.00" departLane="E_in_0" departPos="8.88" departSpeed="2.33" departDelay="0.97" arrival="72.00" arrivalLane="S_out_1" arrivalPos="189.60" arrivalSpeed="12.75" duration="44.00" routeLength="389.67" waitingTime="1.00" waitingCount="1" stopTime="0.00" timeLoss="12.87" rerouteNo="0" devices="vehroute_flow_1_phase1_N_straight.2 tripinfo_flow_1_phase1_N_straight.2" vType="moto" speedFactor="0.93" vaporized=""/>
    <tripinfo id="flow_14_phase1_W_left.1" depart="35.00" departLane="W_in_0" departPos="86.42" departSpeed="5.40" departDelay="0.53" arrival="81.00" arrivalLane="N_out_1" arrivalPos="189.60" arrivalSpeed="12.24" duration="46.00" routeLength="312.13" waitingTime="4.00" waitingCount="1" stopTime="0.00" timeLoss="19.86" rerouteNo="0" devices="vehroute_flow_14_phase1_W_left.1 tripinfo_flow_14_phase1_W_left.1" vType="container" speedFactor="0.91" vaporized=""/>
    <tripinfo id="flow_7_phase1_S_right.1" depart="33.00" departLane="S_in_1" departPos="128.68" departSpeed="2.32" departDelay="0.51" arrival="83.00" arrivalLane="E_out_0" arrivalPos="189.60" arrivalSpeed="10.65" duration="50.00" routeLength="259.55" waitingTime="11.00" waitingCount="1" stopTime="0.00" timeLoss="25.09" rerouteNo="0" devices="vehroute_flow_7_phase1_S_right.1 tripinfo_flow_7_phase1_S_right.1" vType="container" speedFactor="0.78" vaporized=""/>
    <tripinfo id="flow_5_phase1_S_straight.3" depart="40.00" departLane="S_in_0" departPos="132.62" departSpeed="5.13" departDelay="0.31" arrival="83.00" arrivalLane="N_out_1" arrivalPos="189.60" arrivalSpeed="13.69" duration="43.00" routeLength="267.38" waitingTime="12.00" waitingCount="2" stopTime="0.00" timeLoss="24.49" rerouteNo="0" devices="vehroute_flow_5_phase1_S_straight.3 tripinfo_flow_5_phase1_S_straight.3" vType="moto" speedFactor="1.08" vaporized=""/>
    <tripinfo id="flow_5_phase1_S_straight.4" depart="53.00" departLane="S_in_0" departPos="91.01" departSpeed="5.01" departDelay="0.08" arrival="85.00" arrivalLane="N_out_1" arrivalPos="189.60" arrivalSpeed="13.16" duration="32.00" routeLength="308.99" waitingTime="0.00" waitingCount="0" stopTime="0.00" timeLoss="9.03" rerouteNo="0" devices="vehroute_flow_5_phase1_S_straight.4 tripinfo_flow_5_phase1_S_straight.4" vType="container" speedFactor="0.97" vaporized=""/>
    <tripinfo id="flow_2_phase1_N_left.1" depart="33.00" departLane="N_in_1" departPos="66.71" departSpeed="11.27" departDelay="0.32" arrival="86.00" arrivalLane="E_out_1" arrivalPos="189.60" arrivalSpeed="15.09" duration="53.00" routeLength="331.84" waitingTime="20.00" waitingCount="2" stopTime="0.00" timeLoss="30.82" rerouteNo="0" devices="vehroute_flow_2_phase1_N_left.1 tripinfo_flow_2_phase1_N_left.1" vType="moto" speedFactor="1.12" vaporized=""/>
    <tripinfo id="flow_10_phase1_E_left.1" depart="34.00" departLane="S_in_0" departPos="19.85" departSpeed="3.23" departDelay="0.50" arrival="87.00" arrivalLane="E_out_0" arrivalPos="189.60" arrivalSpeed="10.10" duration="53.00" routeLength="368.38" waitingTime="2.00" waitingCount="1" stopTime="0.00" timeLoss="16.80" rerouteNo="0" devices="vehroute_flow_10_phase1_E_left.1 tripinfo_flow_10_phase1_E_left.1" vType="truck" speedFactor="0.77" vaporized=""/>
    <tripinfo id="flow_15_phase1_W_right.2" depart="66.00" departLane="W_in_0" departPos="171.28" departSpeed="5.96" departDelay="0.32" arrival="89.00" arrivalLane="S_out_0" arrivalPos="189.60" arrivalSpeed="12.15" duration="23.00" routeLength="216.95" waitingTime="0.00" waitingCount="0" stopTime="0.00" timeLoss="4.12" rerouteNo="0" devices="vehroute_flow_15_phase1_W_right.2 tripinfo_flow_15_phase1_W_right.2" vType="moto" speedFactor="0.89" vaporized=""/>
    <tripinfo id="flow_13_phase1_W_straight.3" depart="41.00" departLane="E_in_1" departPos="135.04" departSpeed="4.10" departDelay="0.85" arrival="90.00" arrivalLane="S_out_1" arrivalPos="189.60" arrivalSpeed="13.38" duration="49.00" routeLength="263.51" waitingTime="14.00" waitingCount="2" stopTime="0.00" timeLoss="29.71" rerouteNo="0" devices="vehroute_flow_13_phase1_W_straight.3 tripinfo_flow_13_phase1_W_straight.3" vType="car" speedFactor="1.05" vaporized=""/>
    <tripinfo id="flow_1_phase1_N_straight.3" depart="41.00" departLane="E_in_0" departPos="125.48" departSpeed="7.46" departDelay="0.45" arrival="91.00" arrivalLane="S_out_1" arrivalPos="189.60" arrivalSpeed="15.76" duration="50.00" routeLength="273.07" waitingTime="11.00" waitingCount="1" stopTime="0.00" timeLoss="32.30" rerouteNo="0" devices="vehroute_flow_1_phase1_N_straight.3 tripinfo_flow_1_phase1_N_straight.3" vType="moto" speedFactor="1.20" vaporized=""/>
    <tripinfo id="flow_11_phase1_E_right.2" depart="65.00" departLane="E_in_1" departPos="112.37" departSpeed="10.82" departDelay="0.02" arrival="91.00" arrivalLane="N_out_0" arrivalPos="189.60" arrivalSpeed="15.68" duration="26.00" routeLength="275.86" waitingTime="0.00" waitingCount="0" stopTime="0.00" timeLoss="8.17" rerouteNo="0" devices="vehroute_flow_11_phase1_E_right.2 tripinfo_flow_11_phase1_E_right.2" vType="moto" speedFactor="1.14" vaporized=""/>
    <tripinfo id="flow_9_phase1_E_straight.4" depart="52.00" departLane="E_in_0" departPos="26.76" departSpeed="9.44" departDelay="0.49" arrival="94.00" arrivalLane="W_out_0" arrivalPos="189.60" arrivalSpeed="12.67" duration="42.00" routeLength="373.24" waitingTime="2.00" waitingCount="1" stopTime="0.00" timeLoss="13.58" rerouteNo="0" devices="vehroute_flow_9_phase1_E_straight.4 tripinfo_flow_9_phase1_E_straight.4" vType="bus" speedFactor="0.95" vaporized=""/>
    <tripinfo id="flow_9_phase1_E_straight.5" depart="65.00" departLane="E_in_0" departPos="52.57" departSpeed="8.16" departDelay="0.62" arrival="95.00" arrivalLane="W_out_1" arrivalPos="189.60" arrivalSpeed="13.20" duration="30.00" routeLength="347.43" waitingTime="0.00" waitingCount="0" stopTime="0.00" timeLoss="4.89" rerouteNo="0" devices="vehroute_flow_9_phase1_E_straight.5 tripinfo_flow_9_phase1_E_straight.5" vType="moto" speedFactor="1.00" vaporized=""/>
    <tripinfo id="flow_16_phase1_W_uturn.1" depart="67.00" departLane="W_in_0" departPos="87.76" departSpeed="11.32" departDelay="0.80" arrival="97.00" arrivalLane="W_out_1" arrivalPos="189.60" arrivalSpeed="13.27" duration="30.00" routeLength="296.11" waitingTime="0.00" waitingCount="0" stopTime="0.00" timeLoss="7.73" rerouteNo="0" devices="vehroute_flow_16_phase1_W_uturn.1 tripinfo_flow_16_phase1_W_uturn.1" vType="moto" speedFactor="1.04" vaporized=""/>
    <tripinfo id="flow_13_phase1_W_straight.4" depart="54.00" departLane="E_in_0" departPos="128.04" departSpeed="4.72" departDelay="0.46" arrival="98.00" arrivalLane="S_out_1" arrivalPos="189.60" arrivalSpeed="12.00" duration="44.00" routeLength="270.51" waitingTime="9.00" waitingCount="1" stopTime="0.00" timeLoss="20.61" rerouteNo="0" devices="vehroute_flow_13_phase1_W_straight.4 tripinfo_flow_13_phase1_W_straight.4" vType="bus" speedFactor="0.87" vaporized=""/>
    <tripinfo id="flow_12_phase1_E_uturn.1" depart="66.00" departLane="W_in_0" departPos="185.99" departSpeed="0.19" departDelay="0.19" arrival="100.00" arrivalLane="N_out_1" arrivalPos="189.60" arrivalSpeed="12.95" duration="34.00" routeLength="212.56" waitingTime="9.00" waitingCount="2" stopTime="0.00" timeLoss="16.62" rerouteNo="0" devices="vehroute_flow_12_phase1_E_uturn.1 tripinfo_flow_12_phase1_E_uturn.1" vType="moto" speedFactor="0.95" vaporized=""/>
    <tripinfo id="flow_5_phase1_S_straight.5" depart="67.00" departLane="S_in_1" departPos="174.17" departSpeed="9.40" departDelay="0.85" arrival="101.00" arrivalLane="N_out_1" arrivalPos="189.60" arrivalSpeed="13.48" duration="34.00" routeLength="225.83" waitingTime="11.00" waitingCount="1" stopTime="0.00" timeLoss="17.80" rerouteNo="0" devices="vehroute_flow_5_phase1_S_straight.5 tripinfo_flow_5_phase1_S_straight.5" vType="moto" speedFactor="1.03" vaporized=""/>
    <tripinfo id="flow_2_phase1_N_left.2" depart="66.00" departLane="N_in_1" departPos="162.40" departSpeed="1.57" departDelay="0.64" arrival="103.00" arrivalLane="E_out_1" arrivalPos="189.60" arrivalSpeed="14.72" duration="37.00" routeLength="236.15" waitingTime="12.00" waitingCount="2" stopTime="0.00" timeLoss="20.46" rerouteNo="0" devices="vehroute_flow_2_phase1_N_left.2 tripinfo_flow_2_phase1_N_left.2" vType="emergency" speedFactor="1.10" vaporized=""/>
    <tripinfo id="flow_8_phase1_S_uturn.1" depart="66.00" departLane="S_in_0" departPos="179.13" departSpeed="5.99" departDelay="0.07" arrival="104.00" arrivalLane="E_out_0" arrivalPos="189.60" arrivalSpeed="12.46" duration="38.00" routeLength="209.10" waitingTime="13.00" waitingCount="1" stopTime="0.00" timeLoss="21.24" rerouteNo="0" devices="vehroute_flow_8_phase1_S_uturn.1 tripinfo_flow_8_phase1_S_uturn.1" vType="truck" speedFactor="0.94" vaporized=""/>
    <tripinfo id="flow_3_phase1_N_right.2" depart="69.00" departLane="N_in_0" departPos="61.32" departSpeed="6.85" departDelay="0.63" arrival="104.00" arrivalLane="N_out_1" arrivalPos="189.60" arrivalSpeed="14.39" duration="35.00" routeLength="322.55" waitingTime="1.00" waitingCount="1" stopTime="0.00" timeLoss="13.34" rerouteNo="0" devices="vehroute_flow_3_phase1_N_right.2 tripinfo_flow_3_phase1_N_right.2" vType="moto" speedFactor="1.10" vaporized=""/>
    <tripinfo id="flow_7_phase1_S_right.2" depart="65.00" departLane="S_in_0" departPos="125.76" departSpeed="4.92" departDelay="0.01" arrival="106.00" arrivalLane="E_out_1" arrivalPos="189.60" arrivalSpeed="14.11" duration="41.00" routeLength="262.47" waitingTime="10.00" waitingCount="1" stopTime="0.00" timeLoss="21.83" rerouteNo="0" devices="vehroute_flow_7_phase1_S_right.2 tripinfo_flow_7_phase1_S_right.2" vType="moto" speedFactor="1.03" vaporized=""/>
    <tripinfo id="flow_10_phase1_E_left.2" depart="67.00" departLane="S_in_1" departPos="155.35" departSpeed="11.57" departDelay="0.00" arrival="106.00" arrivalLane="E_out_0" arrivalPos="189.60" arrivalSpeed="13.56" duration="39.00" routeLength="232.88" waitingTime="10.00" waitingCount="1" stopTime="0.00" timeLoss="22.37" rerouteNo="0" devices="vehroute_flow_10_phase1_E_left.2 tripinfo_flow_10_phase1_E_left.2" vType="moto" speedFactor="1.07" vaporized=""/>
    <tripinfo id="flow_5_phase1_S_straight.6" depart="80.00" departLane="S_in_1" departPos="21.74" departSpeed="12.05" departDelay="0.62" arrival="106.00" arrivalLane="N_out_1" arrivalPos="189.60" arrivalSpeed="15.06" duration="26.00" routeLength="378.26" waitingTime="0.00" waitingCount="0" stopTime="0.00" timeLoss="0.96" rerouteNo="0" devices="vehroute_flow_5_phase1_S_straight.6 tripinfo_flow_5_phase1_S_straight.6" vType="moto" speedFactor="1.10" vaporized=""/>
    <tripinfo id="flow_6_phase1_S_left.2" depart="67.00" departLane="S_in_1" departPos="78.09" departSpeed="6.03" departDelay="0.10" arrival="108.00" arrivalLane="W_out_1" arrivalPos="189.60" arrivalSpeed="11.70" duration="41.00" routeLength="320.46" waitingTime="4.00" waitingCount="1" stopTime="0.00" timeLoss="13.80" rerouteNo="0" devices="vehroute_flow_6_phase1_S_left.2 tripinfo_flow_6_phase1_S_left.2" vType="truck" speedFactor="0.89" vaporized=""/>
    <tripinfo id="flow_9_phase1_E_straight.6" depart="78.00" departLane="E_in_1" departPos="109.89" departSpeed="2.24" departDelay="0.74" arrival="114.00" arrivalLane="W_out_0" arrivalPos="189.60" arrivalSpeed="13.50" duration="36.00" routeLength="290.11" waitingTime="5.00" waitingCount="1" stopTime="0.00" timeLoss="15.29" rerouteNo="0" devices="vehroute_flow_9_phase1_E_straight.6 tripinfo_flow_9_phase1_E_straight.6" vType="moto" speedFactor="1.02" vaporized=""/>
    <tripinfo id="flow_15_phase1_W_right.3" depart="99.00" departLane="W_in_0" departPos="150.32" departSpeed="6.88" departDelay="0.49" arrival="118.00" arrivalLane="S_out_0" arrivalPos="189.60" arrivalSpeed="15.06" duration="19.00" routeLength="237.91" waitingTime="0.00" waitingCount="0" stopTime="0.00" timeLoss="3.54" rerouteNo="0" devices="vehroute_flow_15_phase1_W_right.3 tripinfo_flow_15_phase1_W_right.3" vType="moto" speedFactor="1.17" vaporized=""/>
    <tripinfo id="flow_1_phase1_N_straight.4" depart="55.00" departLane="E_in_1" departPos="29.12" departSpeed="10.80" departDelay="0.94" arrival="119.00" arrivalLane="S_out_1" arrivalPos="189.60" arrivalSpeed="12.34" duration="64.00" routeLength="369.43" waitingTime="15.00" waitingCount="2" stopTime="0.00" timeLoss="33.55" rerouteNo="0" devices="vehroute_flow_1_phase1_N_straight.4 tripinfo_flow_1_phase1_N_straight.4" vType="truck" speedFactor="0.92" vaporized=""/>
    <tripinfo id="flow_9_phase1_E_straight.7" depart="91.00" departLane="E_in_1" departPos="88.32" departSpeed="11.93" departDelay="0.86" arrival="119.00" arrivalLane="W_out_0" arrivalPos="189.60" arrivalSpeed="13.11" duration="28.00" routeLength="311.68" waitingTime="0.00" waitingCount="0" stopTime="0.00" timeLoss="5.75" rerouteNo="0" devices="vehroute_flow_9_phase1_E_straight.7 tripinfo_flow_9_phase1_E_straight.7" vType="moto" speedFactor="1.01" vaporized=""/>
    <tripinfo id="flow_13_phase1_W_straight.5" depart="67.00" departLane="E_in_0" departPos="92.42" departSpeed="15.81" departDelay="0.08" arrival="120.00" arrivalLane="S_out_1" arrivalPos="189.60" arrivalSpeed="15.10" duration="53.00" routeLength="306.13" waitingTime="13.00" waitingCount="1" stopTime="0.00" timeLoss="33.06" rerouteNo="0" devices="vehroute_flow_13_phase1_W_straight.5 tripinfo_flow_13_phase1_W_straight.5" vType="moto" speedFactor="1.14" vaporized=""/>
    <tripinfo id="flow_4_phase1_N_uturn.1" depart="67.00" departLane="E_in_0" departPos="64.25" departSpeed="4.51" departDelay="0.96" arrival="122.00" arrivalLane="S_out_1" arrivalPos="189.60" arrivalSpeed="12.75" duration="55.00" routeLength="334.30" waitingTime="11.00" waitingCount="1" stopTime="0.00" timeLoss="28.06" rerouteNo="0" devices="vehroute_flow_4_phase1_N_uturn.1 tripinfo_flow_4_phase1_N_uturn.1" vType="moto" speedFactor="0.94" vaporized=""/>
    <tripinfo id="flow_9_phase1_E_straight.8" depart="104.00" departLane="E_in_0" departPos="178.62" departSpeed="7.12" departDelay="0.98" arrival="123.00" arrivalLane="W_out_0" arrivalPos="189.60" arrivalSpeed="12.88" duration="19.00" routeLength="221.38" waitingTime="0.00" waitingCount="0" stopTime="0.00" timeLoss="1.33" rerouteNo="0" devices="vehroute_flow_9_phase1_E_straight.8 tripinfo_flow_9_phase1_E_straight.8" vType="moto" speedFactor="0.94" vaporized=""/>
    <tripinfo id="flow_1_phase1_N_straight.5" depart="68.00" departLane="E_in_1" departPos="39.34" departSpeed="4.17" departDelay="0.42" arrival="124.00" arrivalLane="S_out_1" arrivalPos="189.60" arrivalSpeed="12.46" duration="56.00" routeLength="359.21" waitingTime="11.00" waitingCount="1" stopTime="0.00" timeLoss="26.17" rerouteNo="0" devices="vehroute_flow_1_phase1_N_straight.5 tripinfo_flow_1_phase1_N_straight.5" vType="moto" speedFactor="0.90" vaporized=""/>
    <tripinfo id="flow_14_phase1_W_left.2" depart="69.00" departLane="W_in_0" departPos="69.49" departSpeed="5.55" departDelay="0.06" arrival="128.00" arrivalLane="N_out_1" arrivalPos="189.60" arrivalSpeed="12.03" duration="59.00" routeLength="329.06" waitingTime="22.00" waitingCount="2" stopTime="0.00" timeLoss="31.04" rerouteNo="0" devices="vehroute_flow_14_phase1_W_left.2 tripinfo_flow_14_phase1_W_left.2" vType="car" speedFactor="0.90" vaporized=""/>
    <tripinfo id="flow_6_phase1_S_left.3" depart="101.00" departLane="S_in_0" departPos="36.14" departSpeed="9.22" departDelay="0.64" arrival="129.00" arrivalLane="W_out_1" arrivalPos="189.60" arrivalSpeed="14.47" duration="28.00" routeLength="362.41" waitingTime="0.00" waitingCount="0" stopTime="0.00" timeLoss="2.89" rerouteNo="0" devices="vehroute_flow_6_phase1_S_left.3 tripinfo_flow_6_phase1_S_left.3" vType="car" speedFactor="1.10" vaporized=""/>