<?xml version="1.0" encoding="UTF-8"?>

<!-- generated on 2025-12-08 21:25:19 by Eclipse SUMO sumo Version 1.18.0
<configuration xmlns:xsi="http://www.w3.org/2001/XMLSchema-instance" xsi:noNamespaceSchemaLocation="http://sumo.dlr.de/xsd/sumoConfiguration.xsd">

    <input>
        <net-file value="/workspace/nets/60p2k/net.net.xml"/>
        <route-files value="/workspace/nets/60p2k/route_temp_244_130720908769792_63793894.rou.xml"/>
    </input>

    <output>
        <summary-output value="results/summary_ep_10.xml"/>
        <tripinfo-output value="results/tripinfo_ep_10.xml"/>
        <vehroute-output value="results/vehroute_ep_10.xml"/>
    </output>

    <time>
        <begin value="0"/>
    </time>

    <report>
        <verbose value="true"/>
        <no-step-log value="true"/>
    </report>

    <traci_server>
        <remote-port value="41601"/>
    </traci_server>

    <gui_only>
        <gui-settings-file value="/workspace/nets/60p2k/gui-settings.xml"/>
        <quit-on-end value="true"/>
    </gui_only>

</configuration>
-->

<tripinfos xmlns:xsi="http://www.w3.org/2001/XMLSchema-instance" xsi:noNamespaceSchemaLocation="http://sumo.dlr.de/xsd/tripinfo_file.xsd">
    <tripinfo id="flow_3_phase1_N_right.0" depart="0.00" departLane="N_in_0" departPos="103.38" departSpeed="3.75" departDelay="0.00" arrival="24.00" arrivalLane="W_out_0" arrivalPos="189.60" arrivalSpeed="15.05" duration="24.00" routeLength="284.85" waitingTime="0.00" waitingCount="0" stopTime="0.00" timeLoss="4.53" rerouteNo="0" devices="vehroute_flow_3_phase1_N_right.0 tripinfo_flow_3_phase1_N_right.0" vType="car" speedFactor="1.09" vaporized=""/>
    <tripinfo id="flow_8_phase1_S_uturn.0" depart="0.00" departLane="N_in_0" departPos="120.11" departSpeed="4.48" departDelay="0.00" arrival="24.00" arrivalLane="N_out_1" arrivalPos="189.60" arrivalSpeed="14.03" duration="24.00" routeLength="263.76" waitingTime="0.00" waitingCount="0" stopTime="0.00" timeLoss="5.02" rerouteNo="0" devices="vehroute_flow_8_phase1_S_uturn.0 tripinfo_flow_8_phase1_S_uturn.0" vType="moto" speedFactor="1.05" vaporized=""/>
    <tripinfo id="flow_4_phase1_N_uturn.0" depart="0.00" departLane="N_in_1" departPos="127.60" departSpeed="0.08" departDelay="0.00" arrival="30.00" arrivalLane="N_out_1" arrivalPos="189.60" arrivalSpeed="12.28" duration="30.00" routeLength="256.27" waitingTime="0.00" waitingCount="0" stopTime="0.00" timeLoss="8.62" rerouteNo="0" devices="vehroute_flow_4_phase1_N_uturn.0 tripinfo_flow_4_phase1_N_uturn.0" vType="car" speedFactor="0.92" vaporized=""/>
    <tripinfo id="flow_2_phase1_N_left.0" depart="0.00" departLane="S_in_1" departPos="8.27" departSpeed="8.33" departDelay="0.00" arrival="31.00" arrivalLane="W_out_1" arrivalPos="189.60" arrivalSpeed="13.33" duration="31.00" routeLength="390.28" waitingTime="0.00" waitingCount="0" stopTime="0.00" timeLoss="2.72" rerouteNo="0" devices="vehroute_flow_2_phase1_N_left.0 tripinfo_flow_2_phase1_N_left.0" vType="moto" speedFactor="1.02" vaporized=""/>
    <tripinfo id="flow_5_phase1_S_straight.0" depart="0.00" departLane="W_in_1" departPos="107.37" departSpeed="7.21" departDelay="0.00" arrival="34.00" arrivalLane="S_out_0" arrivalPos="189.60" arrivalSpeed="15.44" duration="34.00" routeLength="280.86" waitingTime="8.00" waitingCount="1" stopTime="0.00" timeLoss="15.50" rerouteNo="0" devices="vehroute_flow_5_phase1_S_straight.0 tripinfo_flow_5_phase1_S_straight.0" vType="moto" speedFactor="1.15" vaporized=""/>
    <tripinfo id="flow_14_phase1_W_left.0" depart="0.00" departLane="E_in_1" departPos="182.88" departSpeed="5.61" departDelay="0.00" arrival="36.00" arrivalLane="W_out_0" arrivalPos="189.60" arrivalSpeed="13.39" duration="36.00" routeLength="217.12" waitingTime="14.00" waitingCount="1" stopTime="0.00" timeLoss="20.39" rerouteNo="0" devices="vehroute_flow_14_phase1_W_left.0 tripinfo_flow_14_phase1_W_left.0" vType="moto" speedFactor="1.01" vaporized=""/>
    <tripinfo id="flow_5_phase1_S_straight.1" depart="14.00" departLane="W_in_0" departPos="93.39" departSpeed="4.92" departDelay="0.77" arrival="37.00" arrivalLane="S_out_0" arrivalPos="189.60" arrivalSpeed="14.97" duration="23.00" routeLength="294.84" waitingTime="0.00" waitingCount="0" stopTime="0.00" timeLoss="3.88" rerouteNo="0" devices="vehroute_flow_5_phase1_S_straight.1 tripinfo_flow_5_phase1_S_straight.1" vType="moto" speedFactor="1.19" vaporized=""/>
    <tripinfo id="flow_9_phase1_E_straight.0" depart="0.00" departLane="E_in_0" departPos="168.29" departSpeed="9.83" departDelay="0.00" arrival="39.00" arrivalLane="N_out_0" arrivalPos="189.60" arrivalSpeed="12.19" duration="39.00" routeLength="219.94" waitingTime="12.00" waitingCount="1" stopTime="0.00" timeLoss="20.80" rerouteNo="0" devices="vehroute_flow_9_phase1_E_straight.0 tripinfo_flow_9_phase1_E_straight.0" vType="truck" speedFactor="0.90" vaporized=""/>
    <tripinfo id="flow_13_phase1_W_straight.1" depart="14.00" departLane="E_in_1" departPos="181.05" departSpeed="0.25" departDelay="0.62" arrival="39.00" arrivalLane="E_out_1" arrivalPos="189.60" arrivalSpeed="15.51" duration="25.00" routeLength="202.82" waitingTime="4.00" waitingCount="1" stopTime="0.00" timeLoss="10.70" rerouteNo="0" devices="vehroute_flow_13_phase1_W_straight.1 tripinfo_flow_13_phase1_W_straight.1" vType="car" speedFactor="1.12" vaporized=""/>
    <tripinfo id="flow_6_phase1_S_left.0" depart="0.00" departLane="E_in_1" departPos="166.01" departSpeed="0.74" departDelay="0.00" arrival="40.00" arrivalLane="W_out_1" arrivalPos="189.60" arrivalSpeed="11.46" duration="40.00" routeLength="233.99" waitingTime="12.00" waitingCount="1" stopTime="0.00" timeLoss="20.85" rerouteNo="0" devices="vehroute_flow_6_phase1_S_left.0 tripinfo_flow_6_phase1_S_left.0" vType="moto" speedFactor="0.88" vaporized=""/>
    <tripinfo id="flow_9_phase1_E_straight.1" depart="13.00" departLane="E_in_0" departPos="135.67" departSpeed="10.69" departDelay="0.12" arrival="41.00" arrivalLane="N_out_1" arrivalPos="189.60" arrivalSpeed="15.66" duration="28.00" routeLength="252.56" waitingTime="0.00" waitingCount="0" stopTime="0.00" timeLoss="11.66" rerouteNo="0" devices="vehroute_flow_9_phase1_E_straight.1 tripinfo_flow_9_phase1_E_straight.1" vType="moto" speedFactor="1.16" vaporized=""/>
    <tripinfo id="flow_11_phase1_E_right.0" depart="0.00" departLane="E_in_1" departPos="144.95" departSpeed="4.02" departDelay="0.00" arrival="42.00" arrivalLane="N_out_0" arrivalPos="189.60" arrivalSpeed="12.78" duration="42.00" routeLength="243.28" waitingTime="11.00" waitingCount="1" stopTime="0.00" timeLoss="22.25" rerouteNo="0" devices="vehroute_flow_11_phase1_E_right.0 tripinfo_flow_11_phase1_E_right.0" vType="bus" speedFactor="0.96" vaporized=""/>
    <tripinfo id="flow_16_phase1_W_uturn.0" depart="0.00" departLane="W_in_1" departPos="153.90" departSpeed="3.48" departDelay="0.00" arrival="42.00" arrivalLane="W_out_1" arrivalPos="189.60" arrivalSpeed="13.50" duration="42.00" routeLength="229.97" waitingTime="16.00" waitingCount="2" stopTime="0.00" timeLoss="24.68" rerouteNo="0" devices="vehroute_flow_16_phase1_W_uturn.0 tripinfo_flow_16_phase1_W_uturn.0" vType="moto" speedFactor="1.04" vaporized=""/>
    <tripinfo id="flow_12_phase1_E_uturn.0" depart="0.00" departLane="W_in_0" departPos="5.65" departSpeed="13.76" departDelay="0.00" arrival="45.00" arrivalLane="N_out_1" arrivalPos="189.60" arrivalSpeed="13.37" duration="45.00" routeLength="392.90" waitingTime="6.00" waitingCount="2" stopTime="0.00" timeLoss="16.47" rerouteNo="0" devices="vehroute_flow_12_phase1_E_uturn.0 tripinfo_flow_12_phase1_E_uturn.0" vType="moto" speedFactor="1.03" vaporized=""/>
    <tripinfo id="flow_10_phase1_E_left.0" depart="0.00" departLane="N_in_0" departPos="44.88" departSpeed="7.69" departDelay="0.00" arrival="52.00" arrivalLane="N_out_1" arrivalPos="189.60" arrivalSpeed="13.49" duration="52.00" routeLength="338.99" waitingTime="15.00" waitingCount="1" stopTime="0.00" timeLoss="26.45" rerouteNo="0" devices="vehroute_flow_10_phase1_E_left.0 tripinfo_flow_10_phase1_E_left.0" vType="truck" speedFactor="1.02" vaporized=""/>
    <tripinfo id="flow_13_phase1_W_straight.0" depart="0.00" departLane="E_in_0" departPos="24.53" departSpeed="3.79" departDelay="0.00" arrival="52.00" arrivalLane="E_out_0" arrivalPos="189.60" arrivalSpeed="11.09" duration="52.00" routeLength="359.34" waitingTime="0.00" waitingCount="0" stopTime="0.00" timeLoss="18.80" rerouteNo="0" devices="vehroute_flow_13_phase1_W_straight.0 tripinfo_flow_13_phase1_W_straight.0" vType="container" speedFactor="0.82" vaporized=""/>
    <tripinfo id="flow_15_phase1_W_right.0" depart="0.00" departLane="S_in_0" departPos="31.84" departSpeed="2.63" departDelay="0.00" arrival="52.00" arrivalLane="N_out_0" arrivalPos="189.60" arrivalSpeed="11.16" duration="52.00" routeLength="368.16" waitingTime="13.00" waitingCount="1" stopTime="0.00" timeLoss="19.91" rerouteNo="0" devices="vehroute_flow_15_phase1_W_right.0 tripinfo_flow_15_phase1_W_right.0" vType="moto" speedFactor="0.85" vaporized=""/>
    <tripinfo id="flow_1_phase1_N_straight.1" depart="14.00" departLane="N_in_1" departPos="177.29" departSpeed="2.31" departDelay="0.48" arrival="55.00" arrivalLane="S_out_1" arrivalPos="189.60" arrivalSpeed="11.25" duration="41.00" routeLength="222.71" waitingTime="14.00" waitingCount="1" stopTime="0.00" timeLoss="21.96" rerouteNo="0" devices="vehroute_flow_1_phase1_N_straight.1 tripinfo_flow_1_phase1_N_straight.1" vType="moto" speedFactor="0.87" vaporized=""/>
    <tripinfo id="flow_1_phase1_N_straight.0" depart="0.00" departLane="N_in_0" departPos="8.62" departSpeed="8.51" departDelay="0.00" arrival="56.00" arrivalLane="S_out_0" arrivalPos="189.60" arrivalSpeed="11.84" duration="56.00" routeLength="391.38" waitingTime="11.00" waitingCount="1" stopTime="0.00" timeLoss="22.52" rerouteNo="0" devices="vehroute_flow_1_phase1_N_straight.0 tripinfo_flow_1_phase1_N_straight.0" vType="bus" speedFactor="0.86" vaporized=""/>
    <tripinfo id="flow_15_phase1_W_right.1" depart="33.00" departLane="S_in_0" departPos="80.24" departSpeed="10.18" departDelay="0.16" arrival="56.00" arrivalLane="N_out_1" arrivalPos="189.60" arrivalSpeed="14.64" duration="23.00" routeLength="319.76" waitingTime="0.00" waitingCount="0" stopTime="0.00" timeLoss="1.23" rerouteNo="0" devices="vehroute_flow_15_phase1_W_right.1 tripinfo_flow_15_phase1_W_right.1" vType="moto" speedFactor="1.08" vaporized=""/>
    <tripinfo id="flow_1_phase1_N_straight.2" depart="28.00" departLane="N_in_1" departPos="64.28" departSpeed="4.05" departDelay="0.97" arrival="57.00" arrivalLane="S_out_1" arrivalPos="189.60" arrivalSpeed="12.75" duration="29.00" routeLength="335.72" waitingTime="0.00" waitingCount="0" stopTime="0.00" timeLoss="2.37" rerouteNo="0" devices="vehroute_flow_1_phase1_N_straight.2 tripinfo_flow_1_phase1_N_straight.2" vType="moto" speedFactor="0.93" vaporized=""/>
    <tripinfo id="flow_7_phase1_S_right.0" depart="0.00" departLane="S_in_0" departPos="8.76" departSpeed="8.07" departDelay="0.00" arrival="59.00" arrivalLane="E_out_0" arrivalPos="189.60" arrivalSpeed="11.22" duration="59.00" routeLength="379.47" waitingTime="9.00" waitingCount="1" stopTime="0.00" timeLoss="25.92" rerouteNo="0" devices="vehroute_flow_7_phase1_S_right.0 tripinfo_flow_7_phase1_S_right.0" vType="container" speedFactor="0.85" vaporized=""/>
    <tripinfo id="flow_9_phase1_E_straight.2" depart="26.00" departLane="E_in_1" departPos="28.79" departSpeed="8.86" departDelay="0.25" arrival="61.00" arrivalLane="N_out_0" arrivalPos="189.60" arrivalSpeed="13.64" duration="35.00" routeLength="359.44" waitingTime="2.00" waitingCount="1" stopTime="0.00" timeLoss="8.40" rerouteNo="0" devices="vehroute_flow_9_phase1_E_straight.2 tripinfo_flow_9_phase1_E_straight.2" vType="moto" speedFactor="0.99" vaporized=""/>
    <tripinfo id="flow_6_phase1_S_left.1" depart="34.00" departLane="E_in_1" departPos="97.23" departSpeed="5.66" departDelay="0.55" arrival="61.00" arrivalLane="W_out_1" arrivalPos="189.60" arrivalSpeed="13.48" duration="27.00" routeLength="302.77" waitingTime="0.00" waitingCount="0" stopTime="0.00" timeLoss="5.49" rerouteNo="0" devices="vehroute_flow_6_phase1_S_left.1 tripinfo_flow_6_phase1_S_left.1" vType="moto" speedFactor="1.05" vaporized=""/>
    <tripinfo id="flow_5_phase1_S_straight.2" depart="27.00" departLane="W_in_1" departPos="103.67" departSpeed="3.73" departDelay="0.54" arrival="62.00" arrivalLane="S_out_0" arrivalPos="189.60" arrivalSpeed="12.21" duration="35.00" routeLength="284.56" waitingTime="5.00" waitingCount="1" stopTime="0.00" timeLoss="12.58" rerouteNo="0" devices="vehroute_flow_5_phase1_S_straight.2 tripinfo_flow_5_phase1_S_straight.2" vType="moto" speedFactor="0.96" vaporized=""/>
    <tripinfo id="flow_5_phase1_S_straight.3" depart="40.00" departLane="W_in_1" departPos="165.68" departSpeed="6.82" departDelay="0.31" arrival="63.00" arrivalLane="S_out_0" arrivalPos="189.60" arrivalSpeed="14.88" duration="23.00" routeLength="222.55" waitingTime="0.00" waitingCount="0" stopTime="0.00" timeLoss="7.05" rerouteNo="0" devices="vehroute_flow_5_phase1_S_straight.3 tripinfo_flow_5_phase1_S_straight.3" vType="moto" speedFactor="1.08" vaporized=""/>
    <tripinfo id="flow_14_phase1_W_left.1" depart="35.00" departLane="E_in_0" departPos="118.54" departSpeed="1.33" departDelay="0.53" arrival="67.00" arrivalLane="W_out_0" arrivalPos="189.60" arrivalSpeed="12.44" duration="32.00" routeLength="281.46" waitingTime="0.00" waitingCount="0" stopTime="0.00" timeLoss="9.74" rerouteNo="0" devices="vehroute_flow_14_phase1_W_left.1 tripinfo_flow_14_phase1_W_left.1" vType="container" speedFactor="0.91" vaporized=""/>
    <tripinfo id="flow_13_phase1_W_straight.2" depart="27.00" departLane="E_in_0" departPos="33.93" departSpeed="0.90" departDelay="0.23" arrival="68.00" arrivalLane="E_out_1" arrivalPos="189.60" arrivalSpeed="13.35" duration="41.00" routeLength="349.94" waitingTime="0.00" waitingCount="0" stopTime="0.00" timeLoss="12.76" rerouteNo="0" devices="vehroute_flow_13_phase1_W_straight.2 tripinfo_flow_13_phase1_W_straight.2" vType="bus" speedFactor="0.97" vaporized=""/>
    <tripinfo id="flow_11_phase1_E_right.1" depart="33.00" departLane="E_in_0" departPos="54.99" departSpeed="5.07" departDelay="0.51" arrival="69.00" arrivalLane="N_out_0" arrivalPos="189.60" arrivalSpeed="14.02" duration="36.00" routeLength="333.24" waitingTime="0.00" waitingCount="0" stopTime="0.00" timeLoss="11.61" rerouteNo="0" devices="vehroute_flow_11_phase1_E_right.1 tripinfo_flow_11_phase1_E_right.1" vType="moto" speedFactor="1.04" vaporized=""/>
    <tripinfo id="flow_1_phase1_N_straight.3" depart="41.00" departLane="N_in_0" departPos="56.18" departSpeed="12.01" departDelay="0.45" arrival="75.00" arrivalLane="S_out_0" arrivalPos="189.60" arrivalSpeed="15.38" duration="34.00" routeLength="343.82" waitingTime="0.00" waitingCount="0" stopTime="0.00" timeLoss="11.70" rerouteNo="0" devices="vehroute_flow_1_phase1_N_straight.3 tripinfo_flow_1_phase1_N_straight.3" vType="moto" speedFactor="1.20" vaporized=""/>
    <tripinfo id="flow_3_phase1_N_right.1" depart="35.00" departLane="N_in_0" departPos="4.52" departSpeed="11.96" departDelay="0.82" arrival="77.00" arrivalLane="W_out_0" arrivalPos="189.60" arrivalSpeed="10.96" duration="42.00" routeLength="383.71" waitingTime="3.00" waitingCount="1" stopTime="0.00" timeLoss="9.27" rerouteNo="0" devices="vehroute_flow_3_phase1_N_right.1 tripinfo_flow_3_phase1_N_right.1" vType="moto" speedFactor="0.88" vaporized=""/>
    <tripinfo id="flow_2_phase1_N_left.1" depart="33.00" departLane="S_in_1" departPos="39.28" departSpeed="8.85" departDelay="0.32" arrival="78.00" arrivalLane="W_out_1" arrivalPos="189.60" arrivalSpeed="14.78" duration="45.00" routeLength="359.27" waitingTime="12.00" waitingCount="2" stopTime="0.00" timeLoss="20.89" rerouteNo="0" devices="vehroute_flow_2_phase1_N_left.1 tripinfo_flow_2_phase1_N_left.1" vType="moto" speedFactor="1.12" vaporized=""/>
    <tripinfo id="flow_7_phase1_S_right.1" depart="33.00" departLane="S_in_0" departPos="15.17" departSpeed="0.51" departDelay="0.51" arrival="81.00" arrivalLane="E_out_0" arrivalPos="189.60" arrivalSpeed="10.51" duration="48.00" routeLength="373.06" waitingTime="0.00" waitingCount="0" stopTime="0.00" timeLoss="12.61" rerouteNo="0" devices="vehroute_flow_7_phase1_S_right.1 tripinfo_flow_7_phase1_S_right.1" vType="container" speedFactor="0.78" vaporized=""/>
    <tripinfo id="flow_10_phase1_E_left.1" depart="34.00" departLane="N_in_1" departPos="79.10" departSpeed="6.23" departDelay="0.50" arrival="81.00" arrivalLane="N_out_0" arrivalPos="189.60" arrivalSpeed="10.60" duration="47.00" routeLength="304.77" waitingTime="8.00" waitingCount="1" stopTime="0.00" timeLoss="16.60" rerouteNo="0" devices="vehroute_flow_10_phase1_E_left.1 tripinfo_flow_10_phase1_E_left.1" vType="truck" speedFactor="0.77" vaporized=""/>
    <tripinfo id="flow_13_phase1_W_straight.3" depart="41.00" departLane="E_in_0" departPos="19.25" departSpeed="4.99" departDelay="0.85" arrival="87.00" arrivalLane="E_out_1" arrivalPos="189.60" arrivalSpeed="14.38" duration="46.00" routeLength="364.62" waitingTime="11.00" waitingCount="1" stopTime="0.00" timeLoss="19.56" rerouteNo="0" devices="vehroute_flow_13_phase1_W_straight.3 tripinfo_flow_13_phase1_W_straight.3" vType="car" speedFactor="1.05" vaporized=""/>
    <tripinfo id="flow_12_phase1_E_uturn.1" depart="66.00" departLane="W_in_0" departPos="155.68" departSpeed="8.48" departDelay="0.19" arrival="89.00" arrivalLane="N_out_1" arrivalPos="189.60" arrivalSpeed="12.80" duration="23.00" routeLength="242.87" waitingTime="0.00" waitingCount="0" stopTime="0.00" timeLoss="3.38" rerouteNo="0" devices="vehroute_flow_12_phase1_E_uturn.1 tripinfo_flow_12_phase1_E_uturn.1" vType="moto" speedFactor="0.95" vaporized=""/>
    <tripinfo id="flow_16_phase1_W_uturn.1" depart="67.00" departLane="W_in_1" departPos="155.35" departSpeed="6.45" departDelay="0.80" arrival="90.00" arrivalLane="W_out_1" arrivalPos="189.60" arrivalSpeed="14.19" duration="23.00" routeLength="228.52" waitingTime="0.00" waitingCount="0" stopTime="0.00" timeLoss="5.87" rerouteNo="0" devices="vehroute_flow_16_phase1_W_uturn.1 tripinfo_flow_16_phase1_W_uturn.1" vType="moto" speedFactor="1.04" vaporized=""/>
    <tripinfo id="flow_9_phase1_E_straight.3" depart="39.00" departLane="E_in_1" departPos="80.60" departSpeed="5.83" departDelay="0.37" arrival="92.00" arrivalLane="N_out_0" arrivalPos="189.60" arrivalSpeed="11.48" duration="53.00" routeLength="307.63" waitingTime="13.00" waitingCount="1" stopTime="0.00" timeLoss="26.20" rerouteNo="0" devices="vehroute_flow_9_phase1_E_straight.3 tripinfo_flow_9_phase1_E_straight.3" vType="bus" speedFactor="0.85" vaporized=""/>
    <tripinfo id="flow_9_phase1_E_straight.4" depart="52.00" departLane="E_in_0" departPos="148.08" departSpeed="8.76" departDelay="0.49" arrival="95.00" arrivalLane="N_out_0" arrivalPos="189.60" arrivalSpeed="12.67" duration="43.00" routeLength="240.15" waitingTime="12.00" waitingCount="1" stopTime="0.00" timeLoss="23.92" rerouteNo="0" devices="vehroute_flow_9_phase1_E_straight.4 tripinfo_flow_9_phase1_E_straight.4" vType="bus" speedFactor="0.95" vaporized=""/>
    <tripinfo id="flow_5_phase1_S_straight.4" depart="53.00" departLane="W_in_1" departPos="23.57" departSpeed="9.61" departDelay="0.08" arrival="95.00" arrivalLane="S_out_0" arrivalPos="189.60" arrivalSpeed="13.21" duration="42.00" routeLength="364.66" waitingTime="1.00" waitingCount="1" stopTime="0.00" timeLoss="13.61" rerouteNo="0" devices="vehroute_flow_5_phase1_S_straight.4 tripinfo_flow_5_phase1_S_straight.4" vType="container" speedFactor="0.97" vaporized=""/>
    <tripinfo id="flow_13_phase1_W_straight.4" depart="54.00" departLane="E_in_0" departPos="70.46" departSpeed="1.71" departDelay="0.46" arrival="95.00" arrivalLane="E_out_0" arrivalPos="189.60" arrivalSpeed="11.46" duration="41.00" routeLength="313.41" waitingTime="0.00" waitingCount="0" stopTime="0.00" timeLoss="13.52" rerouteNo="0" devices="vehroute_flow_13_phase1_W_straight.4 tripinfo_flow_13_phase1_W_straight.4" vType="bus" speedFactor="0.87" vaporized=""/>
    <tripinfo id="flow_5_phase1_S_straight.5" depart="67.00" departLane="W_in_1" departPos="65.57" departSpeed="2.39" departDelay="0.85" arrival="95.00" arrivalLane="S_out_1" arrivalPos="189.60" arrivalSpeed="13.05" duration="28.00" routeLength="322.66" waitingTime="0.00" waitingCount="0" stopTime="0.00" timeLoss="4.62" rerouteNo="0" devices="vehroute_flow_5_phase1_S_straight.5 tripinfo_flow_5_phase1_S_straight.5" vType="moto" speedFactor="1.03" vaporized=""/>
    <tripinfo id="flow_13_phase1_W_straight.5" depart="67.00" departLane="E_in_1" departPos="78.09" departSpeed="7.72" departDelay="0.08" arrival="96.00" arrivalLane="E_out_1" arrivalPos="189.60" arrivalSpeed="15.44" duration="29.00" routeLength="305.78" waitingTime="0.00" waitingCount="0" stopTime="0.00" timeLoss="8.64" rerouteNo="0" devices="vehroute_flow_13_phase1_W_straight.5 tripinfo_flow_13_phase1_W_straight.5" vType="moto" speedFactor="1.14" vaporized=""/>
    <tripinfo id="flow_7_phase1_S_right.2" depart="65.00" departLane="S_in_1" departPos="160.30" departSpeed="13.98" departDelay="0.01" arrival="100.00" arrivalLane="E_out_0" arrivalPos="189.60" arrivalSpeed="13.14" duration="35.00" routeLength="227.93" waitingTime="12.00" waitingCount="1" stopTime="0.00" timeLoss="18.10" rerouteNo="0" devices="vehroute_flow_7_phase1_S_right.2 tripinfo_flow_7_phase1_S_right.2" vType="moto" speedFactor="1.03" vaporized=""/>
    <tripinfo id="flow_10_phase1_E_left.2" depart="67.00" departLane="N_in_1" departPos="174.17" departSpeed="9.64" departDelay="0.00" arrival="100.00" arrivalLane="N_out_1" arrivalPos="189.60" arrivalSpeed="14.71" duration="33.00" routeLength="209.70" waitingTime="10.00" waitingCount="1" stopTime="0.00" timeLoss="17.58" rerouteNo="0" devices="vehroute_flow_10_phase1_E_left.2 tripinfo_flow_10_phase1_E_left.2" vType="moto" speedFactor="1.07" vaporized=""/>
    <tripinfo id="flow_3_phase1_N_right.2" depart="69.00" departLane="N_in_0" departPos="87.76" departSpeed="12.03" departDelay="0.63" arrival="103.00" arrivalLane="W_out_0" arrivalPos="189.60" arrivalSpeed="14.86" duration="34.00" routeLength="300.47" waitingTime="4.00" waitingCount="1" stopTime="0.00" timeLoss="13.93" rerouteNo="0" devices="vehroute_flow_3_phase1_N_right.2 tripinfo_flow_3_phase1_N_right.2" vType="moto" speedFactor="1.10" vaporized=""/>
    <tripinfo id="flow_4_phase1_N_uturn.1" depart="67.00" departLane="N_in_0" departPos="91.52" departSpeed="11.56" departDelay="0.96" arrival="105.00" arrivalLane="N_out_1" arrivalPos="189.60" arrivalSpeed="12.77" duration="38.00" routeLength="292.35" waitingTime="7.00" waitingCount="1" stopTime="0.00" timeLoss="13.68" rerouteNo="0" devices="vehroute_flow_4_phase1_N_uturn.1 tripinfo_flow_4_phase1_N_uturn.1" vType="moto" speedFactor="0.94" vaporized=""/>
    <tripinfo id="flow_1_phase1_N_straight.4" depart="55.00" departLane="N_in_1" departPos="74.07" departSpeed="0.54" departDelay="0.94" arrival="106.00" arrivalLane="S_out_0" arrivalPos="189.60" arrivalSpeed="12.10" duration="51.00" routeLength="325.93" waitingTime="9.00" waitingCount="1" stopTime="0.00" timeLoss="25.49" rerouteNo="0" devices="vehroute_flow_1_phase1_N_straight.4 tripinfo_flow_1_phase1_N_straight.4" vType="truck" speedFactor="0.92" vaporized=""/>
    <tripinfo id="flow_1_phase1_N_straight.5" depart="68.00" departLane="N_in_0" departPos="92.42" departSpeed="12.50" departDelay="0.42" arrival="107.00" arrivalLane="S_out_1" arrivalPos="189.60" arrivalSpeed="12.10" duration="39.00" routeLength="307.58" waitingTime="6.00" waitingCount="1" stopTime="0.00" timeLoss="14.24" rerouteNo="0" devices="vehroute_flow_1_phase1_N_straight.5 tripinfo_flow_1_phase1_N_straight.5" vType="moto" speedFactor="0.90" vaporized=""/>
    <tripinfo id="flow_15_phase1_W_right.2" depart="66.00" departLane="S_in_1" departPos="2.77" departSpeed="6.78" departDelay="0.32" arrival="108.00" arrivalLane="N_out_0" arrivalPos="189.60" arrivalSpeed="11.54" duration="42.00" routeLength="397.23" waitingTime="0.00" waitingCount="0" stopTime="0.00" timeLoss="9.35" rerouteNo="0" devices="vehroute_flow_15_phase1_W_right.2 tripinfo_flow_15_phase1_W_right.2" vType="moto" speedFactor="0.89" vaporized=""/>
    <tripinfo id="flow_2_phase1_N_left.2" depart="66.00" departLane="S_in_1" departPos="129.09" departSpeed="5.80" departDelay="0.64" arrival="109.00" arrivalLane="W_out_1" arrivalPos="189.60" arrivalSpeed="14.78" duration="43.00" routeLength="269.46" waitingTime="16.00" waitingCount="2" stopTime="0.00" timeLoss="24.00" rerouteNo="0" devices="vehroute_flow_2_phase1_N_left.2 tripinfo_flow_2_phase1_N_left.2" vType="emergency" speedFactor="1.10" vaporized=""/>
    <tripinfo id="flow_11_phase1_E_right.2" depart="65.00" departLane="E_in_1" departPos="111.69" departSpeed="6.85" departDelay="0.02" arrival="112.00" arrivalLane="N_out_0" arrivalPos="189.60" arrivalSpeed="15.26" duration="47.00" routeLength="276.54" waitingTime="15.00" waitingCount="1" stopTime="0.00" timeLoss="28.75" rerouteNo="0" devices="vehroute_flow_11_phase1_E_right.2 tripinfo_flow_11_phase1_E_right.2" vType="moto" speedFactor="1.14" vaporized=""/>
    <tripinfo id="flow_8_phase1_S_uturn.1" depart="66.00" departLane="N_in_1" departPos="19.51" departSpeed="7.49" departDelay="0.07" arrival="112.00" arrivalLane="N_out_1" arrivalPos="189.60" arrivalSpeed="12.52" duration="46.00" routeLength="364.36" waitingTime="2.00" waitingCount="1" stopTime="0.00" timeLoss="16.16" rerouteNo="0" devices="vehroute_flow_8_phase1_S_uturn.1 tripinfo_flow_8_phase1_S_uturn.1" vType="truck" speedFactor="0.94" vaporized=""/>
    <tripinfo id="flow_5_phase1_S_straight.6" depart="80.00" departLane="W_in_0" departPos="69.49" departSpeed="6.79" departDelay="0.62" arrival="112.00" arrivalLane="S_out_0" arrivalPos="189.60" arrivalSpeed="15.05" duration="32.00" routeLength="318.74" waitingTime="4.00" waitingCount="1" stopTime="0.00" timeLoss="10.38" rerouteNo="0" devices="vehroute_flow_5_phase1_S_straight.6 tripinfo_flow_5_phase1_S_straight.6" vType="moto" speedFactor="1.10" vaporized=""/>
    <tripinfo id="flow_9_phase1_E_straight.5" depart="65.00" departLane="E_in_1" departPos="65.33" departSpeed="12.53" departDelay="0.62" arrival="115.00" arrivalLane="N_out_0" arrivalPos="189.60" arrivalSpeed="13.65" duration="50.00" routeLength="322.90" waitingTime="14.00" waitingCount="1" stopTime="0.00" timeLoss="25.84" rerouteNo="0" devices="vehroute_flow_9_phase1_E_straight.5 tripinfo_flow_9_phase1_E_straight.5" vType="moto" speedFactor="1.00" vaporized=""/>
    <tripinfo id="flow_9_phase1_E_straight.6" depart="78.00" departLane="E_in_0" departPos="61.32" departSpeed="6.33" departDelay="0.74" arrival="117.00" arrivalLane="N_out_0" arrivalPos="189.60" arrivalSpeed="13.52" duration="39.00" routeLength="326.91" waitingTime="7.00" waitingCount="1" stopTime="0.00" timeLoss="14.81" rerouteNo="0" devices="vehroute_flow_9_phase1_E_straight.6 tripinfo_flow_9_phase1_E_straight.6" vType="moto" speedFactor="1.02" vaporized=""/>
    <tripinfo id="flow_6_phase1_S_left.2" depart="67.00" departLane="E_in_0" departPos="64.25" departSpeed="5.83" departDelay="0.10" arrival="119.00" arrivalLane="W_out_1" arrivalPos="189.60" arrivalSpeed="12.07" duration="52.00" routeLength="335.75" waitingTime="12.00" waitingCount="1" stopTime="0.00" timeLoss="24.83" rerouteNo="0" devices="vehroute_flow_6_phase1_S_left.2 tripinfo_flow_6_phase1_S_left.2" vType="truck" speedFactor="0.89" vaporized=""/>
    <tripinfo id="flow_9_phase1_E_straight.7" depart="91.00" departLane="E_in_0" departPos="43.18" departSpeed="3.17" departDelay="0.86" arrival="121.00" arrivalLane="N_out_0" arrivalPos="189.60" arrivalSpeed="13.02" duration="30.00" routeLength="345.05" waitingTime="0.00" waitingCount="0" stopTime="0.00" timeLoss="4.41" rerouteNo="0" devices="vehroute_flow_9_phase1_E_straight.7 tripinfo_flow_9_phase1_E_straight.7" vType="moto" speedFactor="1.01" vaporized=""/>
    <tripinfo id="flow_14_phase1_W_left.2" depart="69.00" departLane="E_in_1" departPos="39.34" departSpeed="4.15" departDelay="0.06" arrival="122.00" arrivalLane="W_out_0" arrivalPos="189.60" arrivalSpeed="11.29" duration="53.00" routeLength="360.66" waitingTime="11.00" waitingCount="1" stopTime="0.00" timeLoss="23.23" rerouteNo="0" devices="vehroute_flow_14_phase1_W_left.2 tripinfo_flow_14_phase1_W_left.2" vType="car" speedFactor="0.90" vaporized=""/>
    <tripinfo id="flow_13_phase1_W_straight.6" depart="81.00" departLane="E_in_1" departPos="109.89" departSpeed="2.14" departDelay="0.70" arrival="123.00" arrivalLane="E_out_1" arrivalPos="189.60" arrivalSpeed="12.29" duration="42.00" routeLength="273.98" waitingTime="5.00" waitingCount="1" stopTime="0.00" timeLoss="20.01" rerouteNo="0" devices="vehroute_flow_13_phase1_W_straight.6 tripinfo_flow_13_phase1_W_straight.6" vType="car" speedFactor="0.98" vaporized=""/>
    <tripinfo id="flow_5_phase1_S_straight.7" depart="93.00" departLane="W_in_0" departPos="60.83" departSpeed="11.55" departDelay="0.39" arrival="123.00" arrivalLane="S_out_0" arrivalPos="189.60" arrivalSpeed="12.54" duration="30.00" routeLength="327.40" waitingTime="0.00" waitingCount="0" stopTime="0.00" timeLoss="3.32" rerouteNo="0" devices="vehroute_flow_5_phase1_S_straight.7 tripinfo_flow_5_phase1_S_straight.7" vType="bus" speedFactor="0.90" vaporized=""/>
    <tripinfo id="flow_7_phase1_S_right.3" depart="98.00" departLane="S_in_1" departPos="107.80" departSpeed="13.63" departDelay="0.52" arrival="125.00" arrivalLane="E_out_0" arrivalPos="189.60" arrivalSpeed="14.20" duration="27.00" routeLength="280.43" waitingTime="2.00" waitingCount="1" stopTime="0.00" timeLoss="7.54" rerouteNo="0" devices="vehroute_flow_7_phase1_S_right.3 tripinfo_flow_7_phase1_S_right.3" vType="moto" speedFactor="1.07" vaporized=""/>