<?xml version="1.0" encoding="UTF-8"?>

<!-- generated on 2025-12-08 21:24:27 by Eclipse SUMO sumo Version 1.18.0
<configuration xmlns:xsi="http://www.w3.org/2001/XMLSchema-instance" xsi:noNamespaceSchemaLocation="http://sumo.dlr.de/xsd/sumoConfiguration.xsd">

    <input>
        <net-file value="/workspace/nets/60p2k/net.net.xml"/>
        <route-files value="/workspace/nets/60p2k/route_temp_244_130720908769792_63793894.rou.xml"/>
    </input>

    <output>
        <summary-output value="results/summary_ep_8.xml"/>
        <tripinfo-output value="results/tripinfo_ep_8.xml"/>
        <vehroute-output value="results/vehroute_ep_8.xml"/>
    </output>

    <time>
        <begin value="0"/>
    </time>

    <report>
        <verbose value="true"/>
        <no-step-log value="true"/>
    </report>

    <traci_server>
        <remote-port value="50043"/>
    </traci_server>

    <gui_only>
        <gui-settings-file value="/workspace/nets/60p2k/gui-settings.xml"/>
        <quit-on-end value="true"/>
    </gui_only>

</configuration>
-->

<tripinfos xmlns:xsi="http://www.w3.org/2001/XMLSchema-instance" xsi:noNamespaceSchemaLocation="http://sumo.dlr.de/xsd/tripinfo_file.xsd">
    <tripinfo id="flow_5_phase1_S_straight.0" depart="0.00" departLane="S_in_1" departPos="107.37" departSpeed="7.21" departDelay="0.00" arrival="21.00" arrivalLane="N_out_1" arrivalPos="189.60" arrivalSpeed="15.92" duration="21.00" routeLength="292.63" waitingTime="0.00" waitingCount="0" stopTime="0.00" timeLoss="2.02" rerouteNo="0" devices="vehroute_flow_5_phase1_S_straight.0 tripinfo_flow_5_phase1_S_straight.0" vType="moto" speedFactor="1.15" vaporized=""/>
    <tripinfo id="flow_3_phase1_N_right.0" depart="0.00" departLane="N_in_0" departPos="103.38" departSpeed="3.75" departDelay="0.00" arrival="24.00" arrivalLane="W_out_0" arrivalPos="189.60" arrivalSpeed="14.93" duration="24.00" routeLength="284.85" waitingTime="0.00" waitingCount="0" stopTime="0.00" timeLoss="4.48" rerouteNo="0" devices="vehroute_flow_3_phase1_N_right.0 tripinfo_flow_3_phase1_N_right.0" vType="car" speedFactor="1.09" vaporized=""/>
    <tripinfo id="flow_6_phase1_S_left.0" depart="0.00" departLane="S_in_1" departPos="166.01" departSpeed="0.74" departDelay="0.00" arrival="25.00" arrivalLane="W_out_1" arrivalPos="189.60" arrivalSpeed="11.57" duration="25.00" routeLength="232.54" waitingTime="0.00" waitingCount="0" stopTime="0.00" timeLoss="4.39" rerouteNo="0" devices="vehroute_flow_6_phase1_S_left.0 tripinfo_flow_6_phase1_S_left.0" vType="moto" speedFactor="0.88" vaporized=""/>
    <tripinfo id="flow_4_phase1_N_uturn.0" depart="0.00" departLane="N_in_1" departPos="127.60" departSpeed="0.08" departDelay="0.00" arrival="28.00" arrivalLane="N_out_1" arrivalPos="189.60" arrivalSpeed="11.78" duration="28.00" routeLength="256.27" waitingTime="0.00" waitingCount="0" stopTime="0.00" timeLoss="7.14" rerouteNo="0" devices="vehroute_flow_4_phase1_N_uturn.0 tripinfo_flow_4_phase1_N_uturn.0" vType="car" speedFactor="0.92" vaporized=""/>
    <tripinfo id="flow_2_phase1_N_left.0" depart="0.00" departLane="N_in_1" departPos="8.27" departSpeed="8.33" departDelay="0.00" arrival="31.00" arrivalLane="E_out_1" arrivalPos="189.60" arrivalSpeed="14.01" duration="31.00" routeLength="390.28" waitingTime="0.00" waitingCount="0" stopTime="0.00" timeLoss="2.58" rerouteNo="0" devices="vehroute_flow_2_phase1_N_left.0 tripinfo_flow_2_phase1_N_left.0" vType="moto" speedFactor="1.02" vaporized=""/>
    <tripinfo id="flow_7_phase1_S_right.0" depart="0.00" departLane="S_in_0" departPos="97.26" departSpeed="8.07" departDelay="0.00" arrival="31.00" arrivalLane="E_out_0" arrivalPos="189.60" arrivalSpeed="11.50" duration="31.00" routeLength="290.97" waitingTime="0.00" waitingCount="0" stopTime="0.00" timeLoss="5.41" rerouteNo="0" devices="vehroute_flow_7_phase1_S_right.0 tripinfo_flow_7_phase1_S_right.0" vType="container" speedFactor="0.85" vaporized=""/>
    <tripinfo id="flow_14_phase1_W_left.0" depart="0.00" departLane="S_in_1" departPos="50.07" departSpeed="13.54" departDelay="0.00" arrival="33.00" arrivalLane="E_out_0" arrivalPos="189.60" arrivalSpeed="13.77" duration="33.00" routeLength="338.16" waitingTime="0.00" waitingCount="0" stopTime="0.00" timeLoss="8.17" rerouteNo="0" devices="vehroute_flow_14_phase1_W_left.0 tripinfo_flow_14_phase1_W_left.0" vType="moto" speedFactor="1.01" vaporized=""/>
    <tripinfo id="flow_8_phase1_S_uturn.0" depart="0.00" departLane="W_in_0" departPos="178.04" departSpeed="8.03" departDelay="0.00" arrival="36.00" arrivalLane="N_out_1" arrivalPos="189.60" arrivalSpeed="13.75" duration="36.00" routeLength="220.51" waitingTime="13.00" waitingCount="1" stopTime="0.00" timeLoss="19.76" rerouteNo="0" devices="vehroute_flow_8_phase1_S_uturn.0 tripinfo_flow_8_phase1_S_uturn.0" vType="moto" speedFactor="1.05" vaporized=""/>
    <tripinfo id="flow_12_phase1_E_uturn.0" depart="0.00" departLane="E_in_1" departPos="129.89" departSpeed="0.43" departDelay="0.00" arrival="36.00" arrivalLane="E_out_1" arrivalPos="189.60" arrivalSpeed="11.73" duration="36.00" routeLength="253.98" waitingTime="6.00" waitingCount="1" stopTime="0.00" timeLoss="17.28" rerouteNo="0" devices="vehroute_flow_12_phase1_E_uturn.0 tripinfo_flow_12_phase1_E_uturn.0" vType="moto" speedFactor="1.03" vaporized=""/>
    <tripinfo id="flow_16_phase1_W_uturn.0" depart="0.00" departLane="W_in_0" departPos="126.68" departSpeed="11.71" departDelay="0.00" arrival="38.00" arrivalLane="W_out_1" arrivalPos="189.60" arrivalSpeed="14.32" duration="38.00" routeLength="257.19" waitingTime="11.00" waitingCount="1" stopTime="0.00" timeLoss="17.87" rerouteNo="0" devices="vehroute_flow_16_phase1_W_uturn.0 tripinfo_flow_16_phase1_W_uturn.0" vType="moto" speedFactor="1.04" vaporized=""/>
    <tripinfo id="flow_13_phase1_W_straight.1" depart="14.00" departLane="W_in_1" departPos="121.65" departSpeed="2.86" departDelay="0.62" arrival="38.00" arrivalLane="E_out_1" arrivalPos="189.60" arrivalSpeed="15.04" duration="24.00" routeLength="278.35" waitingTime="0.00" waitingCount="0" stopTime="0.00" timeLoss="5.25" rerouteNo="0" devices="vehroute_flow_13_phase1_W_straight.1 tripinfo_flow_13_phase1_W_straight.1" vType="car" speedFactor="1.12" vaporized=""/>
    <tripinfo id="flow_9_phase1_E_straight.1" depart="13.00" departLane="E_in_0" departPos="131.13" departSpeed="9.54" departDelay="0.12" arrival="39.00" arrivalLane="W_out_0" arrivalPos="189.60" arrivalSpeed="15.65" duration="26.00" routeLength="268.87" waitingTime="0.00" waitingCount="0" stopTime="0.00" timeLoss="8.98" rerouteNo="0" devices="vehroute_flow_9_phase1_E_straight.1 tripinfo_flow_9_phase1_E_straight.1" vType="moto" speedFactor="1.16" vaporized=""/>
    <tripinfo id="flow_11_phase1_E_right.0" depart="0.00" departLane="E_in_1" departPos="30.17" departSpeed="10.18" departDelay="0.00" arrival="40.00" arrivalLane="N_out_0" arrivalPos="189.60" arrivalSpeed="13.17" duration="40.00" routeLength="358.06" waitingTime="1.00" waitingCount="1" stopTime="0.00" timeLoss="12.28" rerouteNo="0" devices="vehroute_flow_11_phase1_E_right.0 tripinfo_flow_11_phase1_E_right.0" vType="bus" speedFactor="0.96" vaporized=""/>
    <tripinfo id="flow_13_phase1_W_straight.0" depart="0.00" departLane="W_in_0" departPos="23.77" departSpeed="1.48" departDelay="0.00" arrival="41.00" arrivalLane="E_out_0" arrivalPos="189.60" arrivalSpeed="11.10" duration="41.00" routeLength="376.23" waitingTime="0.00" waitingCount="0" stopTime="0.00" timeLoss="7.58" rerouteNo="0" devices="vehroute_flow_13_phase1_W_straight.0 tripinfo_flow_13_phase1_W_straight.0" vType="container" speedFactor="0.82" vaporized=""/>
    <tripinfo id="flow_15_phase1_W_right.0" depart="0.00" departLane="E_in_1" departPos="108.38" departSpeed="1.98" departDelay="0.00" arrival="45.00" arrivalLane="S_out_1" arrivalPos="189.60" arrivalSpeed="11.45" duration="45.00" routeLength="290.17" waitingTime="7.00" waitingCount="2" stopTime="0.00" timeLoss="19.08" rerouteNo="0" devices="vehroute_flow_15_phase1_W_right.0 tripinfo_flow_15_phase1_W_right.0" vType="moto" speedFactor="0.85" vaporized=""/>
    <tripinfo id="flow_5_phase1_S_straight.1" depart="14.00" departLane="S_in_1" departPos="31.93" departSpeed="9.28" departDelay="0.77" arrival="47.00" arrivalLane="N_out_0" arrivalPos="189.60" arrivalSpeed="15.97" duration="33.00" routeLength="368.07" waitingTime="1.00" waitingCount="1" stopTime="0.00" timeLoss="9.47" rerouteNo="0" devices="vehroute_flow_5_phase1_S_straight.1 tripinfo_flow_5_phase1_S_straight.1" vType="moto" speedFactor="1.19" vaporized=""/>
    <tripinfo id="flow_9_phase1_E_straight.0" depart="0.00" departLane="E_in_1" departPos="75.19" departSpeed="11.09" departDelay="0.00" arrival="49.00" arrivalLane="W_out_0" arrivalPos="189.60" arrivalSpeed="11.88" duration="49.00" routeLength="324.81" waitingTime="4.00" waitingCount="2" stopTime="0.00" timeLoss="22.20" rerouteNo="0" devices="vehroute_flow_9_phase1_E_straight.0 tripinfo_flow_9_phase1_E_straight.0" vType="truck" speedFactor="0.90" vaporized=""/>
    <tripinfo id="flow_1_phase1_N_straight.0" depart="0.00" departLane="S_in_0" departPos="8.62" departSpeed="8.51" departDelay="0.00" arrival="53.00" arrivalLane="S_out_0" arrivalPos="189.60" arrivalSpeed="11.91" duration="53.00" routeLength="375.25" waitingTime="12.00" waitingCount="1" stopTime="0.00" timeLoss="20.72" rerouteNo="0" devices="vehroute_flow_1_phase1_N_straight.0 tripinfo_flow_1_phase1_N_straight.0" vType="bus" speedFactor="0.86" vaporized=""/>
    <tripinfo id="flow_1_phase1_N_straight.1" depart="14.00" departLane="S_in_1" departPos="58.36" departSpeed="11.64" departDelay="0.48" arrival="57.00" arrivalLane="S_out_1" arrivalPos="189.60" arrivalSpeed="11.78" duration="43.00" routeLength="325.51" waitingTime="5.00" waitingCount="1" stopTime="0.00" timeLoss="14.78" rerouteNo="0" devices="vehroute_flow_1_phase1_N_straight.1 tripinfo_flow_1_phase1_N_straight.1" vType="moto" speedFactor="0.87" vaporized=""/>
    <tripinfo id="flow_1_phase1_N_straight.2" depart="28.00" departLane="S_in_1" departPos="107.53" departSpeed="1.11" departDelay="0.97" arrival="59.00" arrivalLane="S_out_1" arrivalPos="189.60" arrivalSpeed="11.64" duration="31.00" routeLength="276.34" waitingTime="0.00" waitingCount="0" stopTime="0.00" timeLoss="7.88" rerouteNo="0" devices="vehroute_flow_1_phase1_N_straight.2 tripinfo_flow_1_phase1_N_straight.2" vType="moto" speedFactor="0.93" vaporized=""/>
    <tripinfo id="flow_3_phase1_N_right.1" depart="35.00" departLane="N_in_0" departPos="166.00" departSpeed="1.28" departDelay="0.82" arrival="59.00" arrivalLane="W_out_0" arrivalPos="189.60" arrivalSpeed="11.66" duration="24.00" routeLength="222.23" waitingTime="0.00" waitingCount="0" stopTime="0.00" timeLoss="4.60" rerouteNo="0" devices="vehroute_flow_3_phase1_N_right.1 tripinfo_flow_3_phase1_N_right.1" vType="moto" speedFactor="0.88" vaporized=""/>
    <tripinfo id="flow_11_phase1_E_right.1" depart="33.00" departLane="E_in_1" departPos="80.24" departSpeed="3.06" departDelay="0.51" arrival="60.00" arrivalLane="N_out_0" arrivalPos="189.60" arrivalSpeed="14.20" duration="27.00" routeLength="307.99" waitingTime="0.00" waitingCount="0" stopTime="0.00" timeLoss="4.63" rerouteNo="0" devices="vehroute_flow_11_phase1_E_right.1 tripinfo_flow_11_phase1_E_right.1" vType="moto" speedFactor="1.04" vaporized=""/>
    <tripinfo id="flow_14_phase1_W_left.1" depart="35.00" departLane="S_in_0" departPos="134.76" departSpeed="11.76" departDelay="0.53" arrival="60.00" arrivalLane="E_out_0" arrivalPos="189.60" arrivalSpeed="12.24" duration="25.00" routeLength="253.47" waitingTime="0.00" waitingCount="0" stopTime="0.00" timeLoss="4.35" rerouteNo="0" devices="vehroute_flow_14_phase1_W_left.1 tripinfo_flow_14_phase1_W_left.1" vType="container" speedFactor="0.91" vaporized=""/>
    <tripinfo id="flow_9_phase1_E_straight.2" depart="26.00" departLane="E_in_1" departPos="52.87" departSpeed="0.38" departDelay="0.25" arrival="63.00" arrivalLane="W_out_0" arrivalPos="189.60" arrivalSpeed="13.04" duration="37.00" routeLength="347.13" waitingTime="2.00" waitingCount="1" stopTime="0.00" timeLoss="11.26" rerouteNo="0" devices="vehroute_flow_9_phase1_E_straight.2 tripinfo_flow_9_phase1_E_straight.2" vType="moto" speedFactor="0.99" vaporized=""/>
    <tripinfo id="flow_13_phase1_W_straight.3" depart="41.00" departLane="W_in_0" departPos="148.08" departSpeed="9.64" departDelay="0.85" arrival="63.00" arrivalLane="E_out_0" arrivalPos="189.60" arrivalSpeed="13.91" duration="22.00" routeLength="251.92" waitingTime="0.00" waitingCount="0" stopTime="0.00" timeLoss="3.76" rerouteNo="0" devices="vehroute_flow_13_phase1_W_straight.3 tripinfo_flow_13_phase1_W_straight.3" vType="car" speedFactor="1.05" vaporized=""/>
    <tripinfo id="flow_13_phase1_W_straight.2" depart="27.00" departLane="W_in_1" departPos="59.51" departSpeed="13.32" departDelay="0.23" arrival="67.00" arrivalLane="E_out_1" arrivalPos="189.60" arrivalSpeed="13.16" duration="40.00" routeLength="340.49" waitingTime="4.00" waitingCount="1" stopTime="0.00" timeLoss="13.84" rerouteNo="0" devices="vehroute_flow_13_phase1_W_straight.2 tripinfo_flow_13_phase1_W_straight.2" vType="bus" speedFactor="0.97" vaporized=""/>
    <tripinfo id="flow_10_phase1_E_left.0" depart="0.00" departLane="E_in_0" departPos="6.15" departSpeed="3.34" departDelay="0.00" arrival="73.00" arrivalLane="S_out_1" arrivalPos="189.60" arrivalSpeed="13.75" duration="73.00" routeLength="392.40" waitingTime="17.00" waitingCount="2" stopTime="0.00" timeLoss="44.51" rerouteNo="0" devices="vehroute_flow_10_phase1_E_left.0 tripinfo_flow_10_phase1_E_left.0" vType="truck" speedFactor="1.02" vaporized=""/>
    <tripinfo id="flow_9_phase1_E_straight.3" depart="39.00" departLane="E_in_1" departPos="108.76" departSpeed="10.34" departDelay="0.37" arrival="74.00" arrivalLane="W_out_0" arrivalPos="189.60" arrivalSpeed="11.62" duration="35.00" routeLength="291.24" waitingTime="0.00" waitingCount="0" stopTime="0.00" timeLoss="10.38" rerouteNo="0" devices="vehroute_flow_9_phase1_E_straight.3 tripinfo_flow_9_phase1_E_straight.3" vType="bus" speedFactor="0.85" vaporized=""/>
    <tripinfo id="flow_5_phase1_S_straight.2" depart="27.00" departLane="S_in_1" departPos="12.70" departSpeed="12.41" departDelay="0.54" arrival="76.00" arrivalLane="N_out_0" arrivalPos="189.60" arrivalSpeed="12.86" duration="49.00" routeLength="387.30" waitingTime="13.00" waitingCount="1" stopTime="0.00" timeLoss="19.29" rerouteNo="0" devices="vehroute_flow_5_phase1_S_straight.2 tripinfo_flow_5_phase1_S_straight.2" vType="moto" speedFactor="0.96" vaporized=""/>
    <tripinfo id="flow_6_phase1_S_left.1" depart="34.00" departLane="S_in_1" departPos="79.10" departSpeed="8.50" departDelay="0.55" arrival="76.00" arrivalLane="W_out_1" arrivalPos="189.60" arrivalSpeed="13.37" duration="42.00" routeLength="319.45" waitingTime="11.00" waitingCount="1" stopTime="0.00" timeLoss="18.87" rerouteNo="0" devices="vehroute_flow_6_phase1_S_left.1 tripinfo_flow_6_phase1_S_left.1" vType="moto" speedFactor="1.05" vaporized=""/>
    <tripinfo id="flow_5_phase1_S_straight.3" depart="40.00" departLane="S_in_1" departPos="77.94" departSpeed="4.43" departDelay="0.31" arrival="77.00" arrivalLane="N_out_1" arrivalPos="189.60" arrivalSpeed="14.66" duration="37.00" routeLength="322.06" waitingTime="6.00" waitingCount="1" stopTime="0.00" timeLoss="15.30" rerouteNo="0" devices="vehroute_flow_5_phase1_S_straight.3 tripinfo_flow_5_phase1_S_straight.3" vType="moto" speedFactor="1.08" vaporized=""/>
    <tripinfo id="flow_1_phase1_N_straight.3" depart="41.00" departLane="S_in_0" departPos="19.25" departSpeed="11.19" departDelay="0.45" arrival="79.00" arrivalLane="S_out_1" arrivalPos="189.60" arrivalSpeed="14.85" duration="38.00" routeLength="364.62" waitingTime="4.00" waitingCount="1" stopTime="0.00" timeLoss="14.23" rerouteNo="0" devices="vehroute_flow_1_phase1_N_straight.3 tripinfo_flow_1_phase1_N_straight.3" vType="moto" speedFactor="1.20" vaporized=""/>
    <tripinfo id="flow_2_phase1_N_left.1" depart="33.00" departLane="N_in_0" departPos="8.88" departSpeed="2.82" departDelay="0.32" arrival="80.00" arrivalLane="E_out_1" arrivalPos="189.60" arrivalSpeed="15.02" duration="47.00" routeLength="389.67" waitingTime="10.00" waitingCount="2" stopTime="0.00" timeLoss="21.28" rerouteNo="0" devices="vehroute_flow_2_phase1_N_left.1 tripinfo_flow_2_phase1_N_left.1" vType="moto" speedFactor="1.12" vaporized=""/>
    <tripinfo id="flow_7_phase1_S_right.1" depart="33.00" departLane="S_in_1" departPos="66.71" departSpeed="7.87" departDelay="0.51" arrival="84.00" arrivalLane="E_out_0" arrivalPos="189.60" arrivalSpeed="10.75" duration="51.00" routeLength="321.52" waitingTime="9.00" waitingCount="1" stopTime="0.00" timeLoss="20.45" rerouteNo="0" devices="vehroute_flow_7_phase1_S_right.1 tripinfo_flow_7_phase1_S_right.1" vType="container" speedFactor="0.78" vaporized=""/>
    <tripinfo id="flow_13_phase1_W_straight.4" depart="54.00" departLane="W_in_0" departPos="8.08" departSpeed="5.80" departDelay="0.46" arrival="90.00" arrivalLane="E_out_0" arrivalPos="189.60" arrivalSpeed="11.79" duration="36.00" routeLength="391.92" waitingTime="0.00" waitingCount="0" stopTime="0.00" timeLoss="3.09" rerouteNo="0" devices="vehroute_flow_13_phase1_W_straight.4 tripinfo_flow_13_phase1_W_straight.4" vType="bus" speedFactor="0.87" vaporized=""/>
    <tripinfo id="flow_11_phase1_E_right.2" depart="65.00" departLane="E_in_1" departPos="129.09" departSpeed="6.03" departDelay="0.02" arrival="93.00" arrivalLane="N_out_0" arrivalPos="189.60" arrivalSpeed="15.72" duration="28.00" routeLength="259.14" waitingTime="0.00" waitingCount="0" stopTime="0.00" timeLoss="11.25" rerouteNo="0" devices="vehroute_flow_11_phase1_E_right.2 tripinfo_flow_11_phase1_E_right.2" vType="moto" speedFactor="1.14" vaporized=""/>
    <tripinfo id="flow_13_phase1_W_straight.5" depart="67.00" departLane="W_in_1" departPos="74.60" departSpeed="13.00" departDelay="0.08" arrival="93.00" arrivalLane="E_out_0" arrivalPos="189.60" arrivalSpeed="15.67" duration="26.00" routeLength="325.40" waitingTime="0.00" waitingCount="0" stopTime="0.00" timeLoss="5.11" rerouteNo="0" devices="vehroute_flow_13_phase1_W_straight.5 tripinfo_flow_13_phase1_W_straight.5" vType="moto" speedFactor="1.14" vaporized=""/>
    <tripinfo id="flow_9_phase1_E_straight.4" depart="52.00" departLane="E_in_1" departPos="23.57" departSpeed="9.43" departDelay="0.49" arrival="95.00" arrivalLane="W_out_0" arrivalPos="189.60" arrivalSpeed="12.93" duration="43.00" routeLength="376.43" waitingTime="1.00" waitingCount="1" stopTime="0.00" timeLoss="14.20" rerouteNo="0" devices="vehroute_flow_9_phase1_E_straight.4 tripinfo_flow_9_phase1_E_straight.4" vType="bus" speedFactor="0.95" vaporized=""/>
    <tripinfo id="flow_15_phase1_W_right.1" depart="33.00" departLane="E_in_1" departPos="97.23" departSpeed="5.84" departDelay="0.16" arrival="98.00" arrivalLane="S_out_1" arrivalPos="189.60" arrivalSpeed="14.47" duration="65.00" routeLength="301.32" waitingTime="27.00" waitingCount="4" stopTime="0.00" timeLoss="43.65" rerouteNo="0" devices="vehroute_flow_15_phase1_W_right.1 tripinfo_flow_15_phase1_W_right.1" vType="moto" speedFactor="1.08" vaporized=""/>
    <tripinfo id="flow_12_phase1_E_uturn.1" depart="66.00" departLane="E_in_0" departPos="185.99" departSpeed="0.19" departDelay="0.19" arrival="98.00" arrivalLane="E_out_1" arrivalPos="189.60" arrivalSpeed="12.27" duration="32.00" routeLength="197.88" waitingTime="7.00" waitingCount="2" stopTime="0.00" timeLoss="15.58" rerouteNo="0" devices="vehroute_flow_12_phase1_E_uturn.1 tripinfo_flow_12_phase1_E_uturn.1" vType="moto" speedFactor="0.95" vaporized=""/>
    <tripinfo id="flow_3_phase1_N_right.2" depart="69.00" departLane="N_in_1" departPos="152.01" departSpeed="2.35" departDelay="0.63" arrival="100.00" arrivalLane="W_out_0" arrivalPos="189.60" arrivalSpeed="14.30" duration="31.00" routeLength="236.22" waitingTime="5.00" waitingCount="1" stopTime="0.00" timeLoss="14.60" rerouteNo="0" devices="vehroute_flow_3_phase1_N_right.2 tripinfo_flow_3_phase1_N_right.2" vType="moto" speedFactor="1.10" vaporized=""/>
    <tripinfo id="flow_8_phase1_S_uturn.1" depart="66.00" departLane="W_in_0" departPos="179.13" departSpeed="6.49" departDelay="0.07" arrival="103.00" arrivalLane="N_out_1" arrivalPos="189.60" arrivalSpeed="12.44" duration="37.00" routeLength="219.42" waitingTime="6.00" waitingCount="1" stopTime="0.00" timeLoss="19.03" rerouteNo="0" devices="vehroute_flow_8_phase1_S_uturn.1 tripinfo_flow_8_phase1_S_uturn.1" vType="truck" speedFactor="0.94" vaporized=""/>
    <tripinfo id="flow_7_phase1_S_right.2" depart="65.00" departLane="S_in_1" departPos="65.33" departSpeed="12.93" departDelay="0.01" arrival="108.00" arrivalLane="E_out_0" arrivalPos="189.60" arrivalSpeed="14.21" duration="43.00" routeLength="322.90" waitingTime="9.00" waitingCount="1" stopTime="0.00" timeLoss="18.97" rerouteNo="0" devices="vehroute_flow_7_phase1_S_right.2 tripinfo_flow_7_phase1_S_right.2" vType="moto" speedFactor="1.03" vaporized=""/>
    <tripinfo id="flow_5_phase1_S_straight.4" depart="53.00" departLane="S_in_0" departPos="167.23" departSpeed="1.90" departDelay="0.08" arrival="109.00" arrivalLane="N_out_0" arrivalPos="189.60" arrivalSpeed="12.90" duration="56.00" routeLength="232.77" waitingTime="19.00" waitingCount="2" stopTime="0.00" timeLoss="38.50" rerouteNo="0" devices="vehroute_flow_5_phase1_S_straight.4 tripinfo_flow_5_phase1_S_straight.4" vType="container" speedFactor="0.97" vaporized=""/>
    <tripinfo id="flow_4_phase1_N_uturn.1" depart="67.00" departLane="N_in_1" departPos="89.17" departSpeed="10.40" departDelay="0.96" arrival="111.00" arrivalLane="N_out_1" arrivalPos="189.60" arrivalSpeed="12.34" duration="44.00" routeLength="294.70" waitingTime="12.00" waitingCount="2" stopTime="0.00" timeLoss="20.10" rerouteNo="0" devices="vehroute_flow_4_phase1_N_uturn.1 tripinfo_flow_4_phase1_N_uturn.1" vType="moto" speedFactor="0.94" vaporized=""/>
    <tripinfo id="flow_1_phase1_N_straight.4" depart="55.00" departLane="S_in_0" departPos="160.30" departSpeed="6.76" departDelay="0.94" arrival="112.00" arrivalLane="S_out_1" arrivalPos="189.60" arrivalSpeed="12.38" duration="57.00" routeLength="223.57" waitingTime="26.00" waitingCount="2" stopTime="0.00" timeLoss="37.59" rerouteNo="0" devices="vehroute_flow_1_phase1_N_straight.4 tripinfo_flow_1_phase1_N_straight.4" vType="truck" speedFactor="0.92" vaporized=""/>
    <tripinfo id="flow_9_phase1_E_straight.5" depart="65.00" departLane="E_in_1" departPos="111.69" departSpeed="5.97" departDelay="0.62" arrival="115.00" arrivalLane="W_out_0" arrivalPos="189.60" arrivalSpeed="13.10" duration="50.00" routeLength="288.31" waitingTime="9.00" waitingCount="2" stopTime="0.00" timeLoss="28.65" rerouteNo="0" devices="vehroute_flow_9_phase1_E_straight.5 tripinfo_flow_9_phase1_E_straight.5" vType="moto" speedFactor="1.00" vaporized=""/>
    <tripinfo id="flow_13_phase1_W_straight.6" depart="81.00" departLane="W_in_1" departPos="47.50" departSpeed="4.35" departDelay="0.70" arrival="115.00" arrivalLane="E_out_0" arrivalPos="189.60" arrivalSpeed="12.59" duration="34.00" routeLength="352.50" waitingTime="0.00" waitingCount="0" stopTime="0.00" timeLoss="8.00" rerouteNo="0" devices="vehroute_flow_13_phase1_W_straight.6 tripinfo_flow_13_phase1_W_straight.6" vType="car" speedFactor="0.98" vaporized=""/>
    <tripinfo id="flow_9_phase1_E_straight.6" depart="78.00" departLane="E_in_0" departPos="18.52" departSpeed="1.63" departDelay="0.74" arrival="116.00" arrivalLane="W_out_0" arrivalPos="189.60" arrivalSpeed="14.18" duration="38.00" routeLength="381.48" waitingTime="1.00" waitingCount="1" stopTime="0.00" timeLoss="10.84" rerouteNo="0" devices="vehroute_flow_9_phase1_E_straight.6 tripinfo_flow_9_phase1_E_straight.6" vType="moto" speedFactor="1.02" vaporized=""/>
    <tripinfo id="flow_16_phase1_W_uturn.1" depart="67.00" departLane="W_in_1" departPos="148.65" departSpeed="7.04" departDelay="0.80" arrival="121.00" arrivalLane="W_out_1" arrivalPos="189.60" arrivalSpeed="14.22" duration="54.00" routeLength="235.22" waitingTime="21.00" waitingCount="3" stopTime="0.00" timeLoss="35.95" rerouteNo="0" devices="vehroute_flow_16_phase1_W_uturn.1 tripinfo_flow_16_phase1_W_uturn.1" vType="moto" speedFactor="1.04" vaporized=""/>
    <tripinfo id="flow_9_phase1_E_straight.7" depart="91.00" departLane="E_in_1" departPos="41.83" departSpeed="13.19" departDelay="0.86" arrival="122.00" arrivalLane="W_out_0" arrivalPos="189.60" arrivalSpeed="13.52" duration="31.00" routeLength="358.17" waitingTime="0.00" waitingCount="0" stopTime="0.00" timeLoss="4.51" rerouteNo="0" devices="vehroute_flow_9_phase1_E_straight.7 tripinfo_flow_9_phase1_E_straight.7" vType="moto" speedFactor="1.01" vaporized=""/>
    <tripinfo id="flow_10_phase1_E_left.1" depart="34.00" departLane="E_in_0" departPos="4.52" departSpeed="10.41" departDelay="0.50" arrival="124.00" arrivalLane="S_out_0" arrivalPos="189.60" arrivalSpeed="10.33" duration="90.00" routeLength="394.03" waitingTime="28.00" waitingCount="4" stopTime="0.00" timeLoss="52.18" rerouteNo="0" devices="vehroute_flow_10_phase1_E_left.1 tripinfo_flow_10_phase1_E_left.1" vType="truck" speedFactor="0.77" vaporized=""/>
    <tripinfo id="flow_15_phase1_W_right.2" depart="66.00" departLane="E_in_0" departPos="31.76" departSpeed="5.96" departDelay="0.32" arrival="126.00" arrivalLane="S_out_1" arrivalPos="189.60" arrivalSpeed="11.07" duration="60.00" routeLength="366.79" waitingTime="10.00" waitingCount="1" stopTime="0.00" timeLoss="29.04" rerouteNo="0" devices="vehroute_flow_15_phase1_W_right.2 tripinfo_flow_15_phase1_W_right.2" vType="moto" speedFactor="0.89" vaporized=""/>
    <tripinfo id="flow_5_phase1_S_straight.5" depart="67.00" departLane="S_in_1" departPos="124.88" departSpeed="0.01" departDelay="0.85" arrival="127.00" arrivalLane="N_out_0" arrivalPos="189.60" arrivalSpeed="13.64" duration="60.00" routeLength="275.12" waitingTime="13.00" waitingCount="2" stopTime="0.00" timeLoss="40.01" rerouteNo="0" devices="vehroute_flow_5_phase1_S_straight.5 tripinfo_flow_5_phase1_S_straight.5" vType="moto" speedFactor="1.03" vaporized=""/>
    <tripinfo id="flow_14_phase1_W_left.2" depart="69.00" departLane="S_in_0" departPos="24.55" departSpeed="7.23" departDelay="0.06" arrival="129.00" arrivalLane="E_out_0" arrivalPos="189.60" arrivalSpeed="11.28" duration="60.00" routeLength="363.68" waitingTime="18.00" waitingCount="2" stopTime="0.00" timeLoss="29.50" rerouteNo="0" devices="vehroute_flow_14_phase1_W_left.2 tripinfo_flow_14_phase1_W_left.2" vType="car" speedFactor="0.90" vaporized=""/>
    <tripinfo id="flow_5_phase1_S_straight.6" depart="80.00" departLane="S_in_1" departPos="37.04" departSpeed="3.48" departDelay="0.62" arrival="129.00" arrivalLane="N_out_0" arrivalPos="189.60" arrivalSpeed="14.31" duration="49.00" routeLength="362.96" waitingTime="9.00" waitingCount="1" stopTime="0.00" timeLoss="24.57" rerouteNo="0" devices="vehroute_flow_5_phase1_S_straight.6 tripinfo_flow_5_phase1_S_straight.6" vType="moto" speedFactor="1.10" vaporized=""/>
    <tripinfo id="flow_1_phase1_N_straight.5" depart="68.00" departLane="S_in_0" departPos="63.10" departSpeed="10.58" departDelay="0.42" arrival="131.00" arrivalLane="S_out_1" arrivalPos="189.60" arrivalSpeed="12.52" duration="63.00" routeLength="320.77" waitingTime="13.00" waitingCount="2" stopTime="0.00" timeLoss="35.46" rerouteNo="0" devices="vehroute_flow_1_phase1_N_straight.5 tripinfo_flow_1_phase1_N_straight.5" vType="moto" speedFactor="0.90" vaporized=""/>
    <tripinfo id="flow_3_phase1_N_right.3" depart="103.00" departLane="N_in_1" departPos="42.08" departSpeed="12.10" departDelay="0.45" arrival="133.00" arrivalLane="W_out_0" arrivalPos="189.60" arrivalSpeed="13.10" duration="30.00" routeLength="346.15" waitingTime="0.00" waitingCount="0" stopTime="0.00" timeLoss="3.40" rerouteNo="0" devices="vehroute_flow_3_phase1_N_right.3 tripinfo_flow_3_phase1_N_right.3" vType="moto" speedFactor="0.96" vaporized=""/>
    <tripinfo id="flow_2_phase1_N_left.2" depart="66.00" departLane="N_in_1" departPos="19.51" departSpeed="8.76" departDelay="0.64" arrival="135.00" arrivalLane="E_out_1" arrivalPos="189.60" arrivalSpeed="14.96" duration="69.00" routeLength="379.04" waitingTime="31.00" waitingCount="4" stopTime="0.00" timeLoss="43.64" rerouteNo="0" devices="vehroute_flow_2_phase1_N_left.2 tripinfo_flow_2_phase1_N_left.2" vType="emergency" speedFactor="1.10" vaporized=""/>
    <tripinfo id="flow_6_phase1_S_left.2" depart="67.00" departLane="S_in_1" departPos="92.22" departSpeed="0.14" departDelay="0.10" arrival="135.00" arrivalLane="W_out_1" arrivalPos="189.60" arrivalSpeed="12.19" duration="68.00" routeLength="306.33" waitingTime="11.00" waitingCount="2" stopTime="0.00" timeLoss="42.27" rerouteNo="0" devices="vehroute_flow_6_phase1_S_left.2 tripinfo_flow_6_phase1_S_left.2" vType="truck" speedFactor="0.89" vaporized=""/>
    <tripinfo id="flow_5_phase1_S_straight.7" depart="93.00" departLane="S_in_1" departPos="76.47" departSpeed="7.14" departDelay="0.39" arrival="135.00" arrivalLane="N_out_0" arrivalPos="189.60" arrivalSpeed="12.41" duration="42.00" routeLength="323.53" waitingTime="1.00" waitingCount="1" stopTime="0.00" timeLoss="16.16" rerouteNo="0" devices="vehroute_flow_5_phase1_S_straight.7 tripinfo_flow_5_phase1_S_straight.7" vType="bus" speedFactor="0.90" vaporized=""/>
    <tripinfo id="flow_1_phase1_N_straight.6" depart="82.00" departLane="S_in_0" departPos="36.12" departSpeed="6.34" departDelay="0.90" arrival="137.00" arrivalLane="S_out_1" arrivalPos="189.60" arrivalSpeed="13.42" duration="55.00" routeLength="347.75" waitingTime="11.00" waitingCount="1" stopTime="0.00" timeLoss="27.26" rerouteNo="0" devices="vehroute_flow_1_phase1_N_straight.6 tripinfo_flow_1_phase1_N_straight.6" vType="car" speedFactor="0.98" vaporized=""/>