<?xml version="1.0" encoding="UTF-8"?>

<!-- generated on 2025-12-08 21:25:45 by Eclipse SUMO sumo Version 1.18.0
<configuration xmlns:xsi="http://www.w3.org/2001/XMLSchema-instance" xsi:noNamespaceSchemaLocation="http://sumo.dlr.de/xsd/sumoConfiguration.xsd">

    <input>
        <net-file value="/workspace/nets/60p2k/net.net.xml"/>
        <route-files value="/workspace/nets/60p2k/route_temp_244_130720908769792_63793894.rou.xml"/>
    </input>

    <output>
        <summary-output value="results/summary_ep_11.xml"/>
        <tripinfo-output value="results/tripinfo_ep_11.xml"/>
        <vehroute-output value="results/vehroute_ep_11.xml"/>
    </output>

    <time>
        <begin value="0"/>
    </time>

    <report>
        <verbose value="true"/>
        <no-step-log value="true"/>
    </report>

    <traci_server>
        <remote-port value="34255"/>
    </traci_server>

    <gui_only>
        <gui-settings-file value="/workspace/nets/60p2k/gui-settings.xml"/>
        <quit-on-end value="true"/>
    </gui_only>

</configuration>
-->

<tripinfos xmlns:xsi="http://www.w3.org/2001/XMLSchema-instance" xsi:noNamespaceSchemaLocation="http://sumo.dlr.de/xsd/tripinfo_file.xsd">
    <tripinfo id="flow_5_phase1_S_straight.0" depart="0.00" departLane="S_in_1" departPos="107.37" departSpeed="7.21" departDelay="0.00" arrival="22.00" arrivalLane="E_out_0" arrivalPos="189.60" arrivalSpeed="15.82" duration="22.00" routeLength="280.86" waitingTime="0.00" waitingCount="0" stopTime="0.00" timeLoss="3.36" rerouteNo="0" devices="vehroute_flow_5_phase1_S_straight.0 tripinfo_flow_5_phase1_S_straight.0" vType="moto" speedFactor="1.15" vaporized=""/>
    <tripinfo id="flow_16_phase1_W_uturn.0" depart="0.00" departLane="N_in_1" departPos="113.04" departSpeed="3.48" departDelay="0.00" arrival="24.00" arrivalLane="W_out_0" arrivalPos="189.60" arrivalSpeed="14.32" duration="24.00" routeLength="275.19" waitingTime="0.00" waitingCount="0" stopTime="0.00" timeLoss="3.85" rerouteNo="0" devices="vehroute_flow_16_phase1_W_uturn.0 tripinfo_flow_16_phase1_W_uturn.0" vType="moto" speedFactor="1.04" vaporized=""/>
    <tripinfo id="flow_6_phase1_S_left.0" depart="0.00" departLane="N_in_1" departPos="166.01" departSpeed="0.74" departDelay="0.00" arrival="25.00" arrivalLane="N_out_1" arrivalPos="189.60" arrivalSpeed="12.16" duration="25.00" routeLength="217.86" waitingTime="0.00" waitingCount="0" stopTime="0.00" timeLoss="5.48" rerouteNo="0" devices="vehroute_flow_6_phase1_S_left.0 tripinfo_flow_6_phase1_S_left.0" vType="moto" speedFactor="0.88" vaporized=""/>
    <tripinfo id="flow_11_phase1_E_right.0" depart="0.00" departLane="N_in_1" departPos="144.95" departSpeed="4.02" departDelay="0.00" arrival="27.00" arrivalLane="S_out_0" arrivalPos="189.60" arrivalSpeed="12.95" duration="27.00" routeLength="255.05" waitingTime="0.00" waitingCount="0" stopTime="0.00" timeLoss="7.50" rerouteNo="0" devices="vehroute_flow_11_phase1_E_right.0 tripinfo_flow_11_phase1_E_right.0" vType="bus" speedFactor="0.96" vaporized=""/>
    <tripinfo id="flow_4_phase1_N_uturn.0" depart="0.00" departLane="N_in_1" departPos="127.60" departSpeed="0.08" departDelay="0.00" arrival="31.00" arrivalLane="N_out_1" arrivalPos="189.60" arrivalSpeed="11.81" duration="31.00" routeLength="256.27" waitingTime="0.00" waitingCount="0" stopTime="0.00" timeLoss="8.99" rerouteNo="0" devices="vehroute_flow_4_phase1_N_uturn.0 tripinfo_flow_4_phase1_N_uturn.0" vType="car" speedFactor="0.92" vaporized=""/>
    <tripinfo id="flow_12_phase1_E_uturn.0" depart="0.00" departLane="S_in_0" departPos="5.65" departSpeed="13.76" departDelay="0.00" arrival="32.00" arrivalLane="S_out_1" arrivalPos="189.60" arrivalSpeed="14.32" duration="32.00" routeLength="378.22" waitingTime="0.00" waitingCount="0" stopTime="0.00" timeLoss="4.13" rerouteNo="0" devices="vehroute_flow_12_phase1_E_uturn.0 tripinfo_flow_12_phase1_E_uturn.0" vType="moto" speedFactor="1.03" vaporized=""/>
    <tripinfo id="flow_13_phase1_W_straight.0" depart="0.00" departLane="W_in_0" departPos="24.53" departSpeed="3.79" departDelay="0.00" arrival="38.00" arrivalLane="E_out_0" arrivalPos="189.60" arrivalSpeed="11.24" duration="38.00" routeLength="375.47" waitingTime="0.00" waitingCount="0" stopTime="0.00" timeLoss="4.74" rerouteNo="0" devices="vehroute_flow_13_phase1_W_straight.0 tripinfo_flow_13_phase1_W_straight.0" vType="container" speedFactor="0.82" vaporized=""/>
    <tripinfo id="flow_9_phase1_E_straight.0" depart="0.00" departLane="E_in_0" departPos="168.29" departSpeed="9.83" departDelay="0.00" arrival="41.00" arrivalLane="W_out_0" arrivalPos="189.60" arrivalSpeed="11.94" duration="41.00" routeLength="231.71" waitingTime="11.00" waitingCount="1" stopTime="0.00" timeLoss="21.95" rerouteNo="0" devices="vehroute_flow_9_phase1_E_straight.0 tripinfo_flow_9_phase1_E_straight.0" vType="truck" speedFactor="0.90" vaporized=""/>
    <tripinfo id="flow_9_phase1_E_straight.1" depart="13.00" departLane="E_in_1" departPos="58.36" departSpeed="14.96" departDelay="0.12" arrival="43.00" arrivalLane="W_out_0" arrivalPos="189.60" arrivalSpeed="15.93" duration="30.00" routeLength="341.64" waitingTime="0.00" waitingCount="0" stopTime="0.00" timeLoss="7.80" rerouteNo="0" devices="vehroute_flow_9_phase1_E_straight.1 tripinfo_flow_9_phase1_E_straight.1" vType="moto" speedFactor="1.16" vaporized=""/>
    <tripinfo id="flow_14_phase1_W_left.0" depart="0.00" departLane="W_in_1" departPos="182.88" departSpeed="5.61" departDelay="0.00" arrival="46.00" arrivalLane="N_out_1" arrivalPos="189.60" arrivalSpeed="13.24" duration="46.00" routeLength="215.67" waitingTime="19.00" waitingCount="2" stopTime="0.00" timeLoss="29.10" rerouteNo="0" devices="vehroute_flow_14_phase1_W_left.0 tripinfo_flow_14_phase1_W_left.0" vType="moto" speedFactor="1.01" vaporized=""/>
    <tripinfo id="flow_8_phase1_S_uturn.0" depart="0.00" departLane="W_in_0" departPos="120.11" departSpeed="4.48" departDelay="0.00" arrival="47.00" arrivalLane="N_out_1" arrivalPos="189.60" arrivalSpeed="14.22" duration="47.00" routeLength="278.44" waitingTime="14.00" waitingCount="2" stopTime="0.00" timeLoss="26.73" rerouteNo="0" devices="vehroute_flow_8_phase1_S_uturn.0 tripinfo_flow_8_phase1_S_uturn.0" vType="moto" speedFactor="1.05" vaporized=""/>
    <tripinfo id="flow_5_phase1_S_straight.1" depart="14.00" departLane="S_in_1" departPos="121.65" departSpeed="2.93" departDelay="0.77" arrival="47.00" arrivalLane="E_out_0" arrivalPos="189.60" arrivalSpeed="15.55" duration="33.00" routeLength="266.58" waitingTime="6.00" waitingCount="1" stopTime="0.00" timeLoss="15.73" rerouteNo="0" devices="vehroute_flow_5_phase1_S_straight.1 tripinfo_flow_5_phase1_S_straight.1" vType="moto" speedFactor="1.19" vaporized=""/>
    <tripinfo id="flow_10_phase1_E_left.0" depart="0.00" departLane="E_in_0" departPos="44.88" departSpeed="7.69" departDelay="0.00" arrival="49.00" arrivalLane="S_out_1" arrivalPos="189.60" arrivalSpeed="13.49" duration="49.00" routeLength="353.67" waitingTime="7.00" waitingCount="2" stopTime="0.00" timeLoss="22.91" rerouteNo="0" devices="vehroute_flow_10_phase1_E_left.0 tripinfo_flow_10_phase1_E_left.0" vType="truck" speedFactor="1.02" vaporized=""/>
    <tripinfo id="flow_3_phase1_N_right.0" depart="0.00" departLane="N_in_0" departPos="103.38" departSpeed="3.75" departDelay="0.00" arrival="50.00" arrivalLane="N_out_1" arrivalPos="189.60" arrivalSpeed="13.99" duration="50.00" routeLength="280.49" waitingTime="15.00" waitingCount="2" stopTime="0.00" timeLoss="30.14" rerouteNo="0" devices="vehroute_flow_3_phase1_N_right.0 tripinfo_flow_3_phase1_N_right.0" vType="car" speedFactor="1.09" vaporized=""/>
    <tripinfo id="flow_1_phase1_N_straight.0" depart="0.00" departLane="N_in_0" departPos="8.62" departSpeed="8.51" departDelay="0.00" arrival="56.00" arrivalLane="S_out_0" arrivalPos="189.60" arrivalSpeed="11.77" duration="56.00" routeLength="391.38" waitingTime="10.00" waitingCount="1" stopTime="0.00" timeLoss="22.30" rerouteNo="0" devices="vehroute_flow_1_phase1_N_straight.0 tripinfo_flow_1_phase1_N_straight.0" vType="bus" speedFactor="0.86" vaporized=""/>
    <tripinfo id="flow_15_phase1_W_right.0" depart="0.00" departLane="N_in_0" departPos="31.84" departSpeed="2.63" departDelay="0.00" arrival="56.00" arrivalLane="E_out_1" arrivalPos="189.60" arrivalSpeed="11.13" duration="56.00" routeLength="366.71" waitingTime="13.00" waitingCount="1" stopTime="0.00" timeLoss="23.84" rerouteNo="0" devices="vehroute_flow_15_phase1_W_right.0 tripinfo_flow_15_phase1_W_right.0" vType="moto" speedFactor="0.85" vaporized=""/>
    <tripinfo id="flow_5_phase1_S_straight.2" depart="27.00" departLane="S_in_1" departPos="59.51" departSpeed="13.27" departDelay="0.54" arrival="56.00" arrivalLane="E_out_0" arrivalPos="189.60" arrivalSpeed="13.31" duration="29.00" routeLength="328.72" waitingTime="0.00" waitingCount="0" stopTime="0.00" timeLoss="3.11" rerouteNo="0" devices="vehroute_flow_5_phase1_S_straight.2 tripinfo_flow_5_phase1_S_straight.2" vType="moto" speedFactor="0.96" vaporized=""/>
    <tripinfo id="flow_2_phase1_N_left.0" depart="0.00" departLane="N_in_1" departPos="8.27" departSpeed="8.33" departDelay="0.00" arrival="57.00" arrivalLane="E_out_1" arrivalPos="189.60" arrivalSpeed="13.39" duration="57.00" routeLength="390.28" waitingTime="12.00" waitingCount="1" stopTime="0.00" timeLoss="28.63" rerouteNo="0" devices="vehroute_flow_2_phase1_N_left.0 tripinfo_flow_2_phase1_N_left.0" vType="moto" speedFactor="1.02" vaporized=""/>
    <tripinfo id="flow_3_phase1_N_right.1" depart="35.00" departLane="N_in_0" departPos="165.68" departSpeed="8.70" departDelay="0.82" arrival="60.00" arrivalLane="N_out_1" arrivalPos="189.60" arrivalSpeed="12.23" duration="25.00" routeLength="218.19" waitingTime="0.00" waitingCount="0" stopTime="0.00" timeLoss="5.27" rerouteNo="0" devices="vehroute_flow_3_phase1_N_right.1 tripinfo_flow_3_phase1_N_right.1" vType="moto" speedFactor="0.88" vaporized=""/>
    <tripinfo id="flow_13_phase1_W_straight.1" depart="14.00" departLane="W_in_1" departPos="52.87" departSpeed="0.43" departDelay="0.62" arrival="61.00" arrivalLane="E_out_0" arrivalPos="189.60" arrivalSpeed="14.49" duration="47.00" routeLength="347.13" waitingTime="14.00" waitingCount="1" stopTime="0.00" timeLoss="24.37" rerouteNo="0" devices="vehroute_flow_13_phase1_W_straight.1 tripinfo_flow_13_phase1_W_straight.1" vType="car" speedFactor="1.12" vaporized=""/>
    <tripinfo id="flow_9_phase1_E_straight.2" depart="26.00" departLane="E_in_1" departPos="12.70" departSpeed="12.82" departDelay="0.25" arrival="61.00" arrivalLane="W_out_0" arrivalPos="189.60" arrivalSpeed="12.56" duration="35.00" routeLength="387.30" waitingTime="0.00" waitingCount="0" stopTime="0.00" timeLoss="6.34" rerouteNo="0" devices="vehroute_flow_9_phase1_E_straight.2 tripinfo_flow_9_phase1_E_straight.2" vType="moto" speedFactor="0.99" vaporized=""/>
    <tripinfo id="flow_13_phase1_W_straight.3" depart="41.00" departLane="W_in_0" departPos="167.23" departSpeed="2.06" departDelay="0.85" arrival="64.00" arrivalLane="E_out_0" arrivalPos="189.60" arrivalSpeed="13.64" duration="23.00" routeLength="232.77" waitingTime="0.00" waitingCount="0" stopTime="0.00" timeLoss="6.16" rerouteNo="0" devices="vehroute_flow_13_phase1_W_straight.3 tripinfo_flow_13_phase1_W_straight.3" vType="car" speedFactor="1.05" vaporized=""/>
    <tripinfo id="flow_9_phase1_E_straight.3" depart="39.00" departLane="E_in_0" departPos="132.62" departSpeed="4.06" departDelay="0.37" arrival="65.00" arrivalLane="W_out_0" arrivalPos="189.60" arrivalSpeed="11.18" duration="26.00" routeLength="267.38" waitingTime="0.00" waitingCount="0" stopTime="0.00" timeLoss="3.25" rerouteNo="0" devices="vehroute_flow_9_phase1_E_straight.3 tripinfo_flow_9_phase1_E_straight.3" vType="bus" speedFactor="0.85" vaporized=""/>
    <tripinfo id="flow_13_phase1_W_straight.2" depart="27.00" departLane="W_in_1" departPos="107.53" departSpeed="1.15" departDelay="0.23" arrival="66.00" arrivalLane="E_out_0" arrivalPos="189.60" arrivalSpeed="13.00" duration="39.00" routeLength="292.47" waitingTime="1.00" waitingCount="1" stopTime="0.00" timeLoss="16.83" rerouteNo="0" devices="vehroute_flow_13_phase1_W_straight.2 tripinfo_flow_13_phase1_W_straight.2" vType="bus" speedFactor="0.97" vaporized=""/>
    <tripinfo id="flow_14_phase1_W_left.1" depart="35.00" departLane="W_in_0" departPos="56.18" departSpeed="12.35" departDelay="0.53" arrival="71.00" arrivalLane="N_out_1" arrivalPos="189.60" arrivalSpeed="12.19" duration="36.00" routeLength="342.37" waitingTime="0.00" waitingCount="0" stopTime="0.00" timeLoss="7.54" rerouteNo="0" devices="vehroute_flow_14_phase1_W_left.1 tripinfo_flow_14_phase1_W_left.1" vType="container" speedFactor="0.91" vaporized=""/>
    <tripinfo id="flow_6_phase1_S_left.1" depart="34.00" departLane="N_in_0" departPos="166.00" departSpeed="1.52" departDelay="0.55" arrival="74.00" arrivalLane="N_out_1" arrivalPos="189.60" arrivalSpeed="14.12" duration="40.00" routeLength="217.87" waitingTime="11.00" waitingCount="1" stopTime="0.00" timeLoss="23.86" rerouteNo="0" devices="vehroute_flow_6_phase1_S_left.1 tripinfo_flow_6_phase1_S_left.1" vType="moto" speedFactor="1.05" vaporized=""/>
    <tripinfo id="flow_5_phase1_S_straight.3" depart="40.00" departLane="S_in_0" departPos="125.48" departSpeed="6.98" departDelay="0.31" arrival="74.00" arrivalLane="E_out_0" arrivalPos="189.60" arrivalSpeed="14.65" duration="34.00" routeLength="262.75" waitingTime="7.00" waitingCount="1" stopTime="0.00" timeLoss="15.07" rerouteNo="0" devices="vehroute_flow_5_phase1_S_straight.3 tripinfo_flow_5_phase1_S_straight.3" vType="moto" speedFactor="1.08" vaporized=""/>
    <tripinfo id="flow_2_phase1_N_left.1" depart="33.00" departLane="N_in_1" departPos="66.71" departSpeed="11.27" departDelay="0.32" arrival="76.00" arrivalLane="E_out_1" arrivalPos="189.60" arrivalSpeed="15.14" duration="43.00" routeLength="331.84" waitingTime="10.00" waitingCount="1" stopTime="0.00" timeLoss="21.18" rerouteNo="0" devices="vehroute_flow_2_phase1_N_left.1 tripinfo_flow_2_phase1_N_left.1" vType="moto" speedFactor="1.12" vaporized=""/>
    <tripinfo id="flow_1_phase1_N_straight.1" depart="14.00" departLane="N_in_1" departPos="31.93" departSpeed="7.04" departDelay="0.48" arrival="77.00" arrivalLane="S_out_0" arrivalPos="189.60" arrivalSpeed="11.43" duration="63.00" routeLength="368.07" waitingTime="17.00" waitingCount="3" stopTime="0.00" timeLoss="32.55" rerouteNo="0" devices="vehroute_flow_1_phase1_N_straight.1 tripinfo_flow_1_phase1_N_straight.1" vType="moto" speedFactor="0.87" vaporized=""/>
    <tripinfo id="flow_1_phase1_N_straight.2" depart="28.00" departLane="N_in_0" departPos="8.88" departSpeed="2.33" departDelay="0.97" arrival="79.00" arrivalLane="S_out_0" arrivalPos="189.60" arrivalSpeed="11.92" duration="51.00" routeLength="391.12" waitingTime="10.00" waitingCount="1" stopTime="0.00" timeLoss="20.00" rerouteNo="0" devices="vehroute_flow_1_phase1_N_straight.2 tripinfo_flow_1_phase1_N_straight.2" vType="moto" speedFactor="0.93" vaporized=""/>
    <tripinfo id="flow_15_phase1_W_right.1" depart="33.00" departLane="N_in_1" departPos="4.52" departSpeed="8.77" departDelay="0.16" arrival="79.00" arrivalLane="E_out_1" arrivalPos="189.60" arrivalSpeed="13.79" duration="46.00" routeLength="394.03" waitingTime="9.00" waitingCount="1" stopTime="0.00" timeLoss="19.13" rerouteNo="0" devices="vehroute_flow_15_phase1_W_right.1 tripinfo_flow_15_phase1_W_right.1" vType="moto" speedFactor="1.08" vaporized=""/>
    <tripinfo id="flow_7_phase1_S_right.0" depart="0.00" departLane="E_in_0" departPos="8.76" departSpeed="8.07" departDelay="0.00" arrival="80.00" arrivalLane="S_out_1" arrivalPos="189.60" arrivalSpeed="11.36" duration="80.00" routeLength="389.79" waitingTime="16.00" waitingCount="3" stopTime="0.00" timeLoss="45.84" rerouteNo="0" devices="vehroute_flow_7_phase1_S_right.0 tripinfo_flow_7_phase1_S_right.0" vType="container" speedFactor="0.85" vaporized=""/>
    <tripinfo id="flow_1_phase1_N_straight.3" depart="41.00" departLane="N_in_1" departPos="23.57" departSpeed="4.50" departDelay="0.45" arrival="80.00" arrivalLane="S_out_0" arrivalPos="189.60" arrivalSpeed="14.81" duration="39.00" routeLength="376.43" waitingTime="1.00" waitingCount="1" stopTime="0.00" timeLoss="15.02" rerouteNo="0" devices="vehroute_flow_1_phase1_N_straight.3 tripinfo_flow_1_phase1_N_straight.3" vType="moto" speedFactor="1.20" vaporized=""/>
    <tripinfo id="flow_5_phase1_S_straight.4" depart="53.00" departLane="S_in_0" departPos="160.30" departSpeed="9.11" departDelay="0.08" arrival="80.00" arrivalLane="E_out_0" arrivalPos="189.60" arrivalSpeed="13.10" duration="27.00" routeLength="227.93" waitingTime="0.00" waitingCount="0" stopTime="0.00" timeLoss="9.46" rerouteNo="0" devices="vehroute_flow_5_phase1_S_straight.4 tripinfo_flow_5_phase1_S_straight.4" vType="container" speedFactor="0.97" vaporized=""/>
    <tripinfo id="flow_11_phase1_E_right.1" depart="33.00" departLane="N_in_1" departPos="97.23" departSpeed="5.62" departDelay="0.51" arrival="82.00" arrivalLane="S_out_1" arrivalPos="189.60" arrivalSpeed="13.28" duration="49.00" routeLength="302.77" waitingTime="11.00" waitingCount="1" stopTime="0.00" timeLoss="27.73" rerouteNo="0" devices="vehroute_flow_11_phase1_E_right.1 tripinfo_flow_11_phase1_E_right.1" vType="moto" speedFactor="1.04" vaporized=""/>
    <tripinfo id="flow_1_phase1_N_straight.4" depart="55.00" departLane="N_in_1" departPos="111.69" departSpeed="5.51" departDelay="0.94" arrival="84.00" arrivalLane="S_out_1" arrivalPos="189.60" arrivalSpeed="12.14" duration="29.00" routeLength="288.31" waitingTime="0.00" waitingCount="0" stopTime="0.00" timeLoss="6.41" rerouteNo="0" devices="vehroute_flow_1_phase1_N_straight.4 tripinfo_flow_1_phase1_N_straight.4" vType="truck" speedFactor="0.92" vaporized=""/>
    <tripinfo id="flow_9_phase1_E_straight.4" depart="52.00" departLane="E_in_0" departPos="8.08" departSpeed="6.36" departDelay="0.49" arrival="90.00" arrivalLane="W_out_0" arrivalPos="189.60" arrivalSpeed="13.23" duration="38.00" routeLength="391.92" waitingTime="0.00" waitingCount="0" stopTime="0.00" timeLoss="7.86" rerouteNo="0" devices="vehroute_flow_9_phase1_E_straight.4 tripinfo_flow_9_phase1_E_straight.4" vType="bus" speedFactor="0.95" vaporized=""/>
    <tripinfo id="flow_13_phase1_W_straight.5" depart="67.00" departLane="W_in_0" departPos="87.76" departSpeed="12.44" departDelay="0.08" arrival="93.00" arrivalLane="E_out_1" arrivalPos="189.60" arrivalSpeed="15.55" duration="26.00" routeLength="312.24" waitingTime="0.00" waitingCount="0" stopTime="0.00" timeLoss="5.68" rerouteNo="0" devices="vehroute_flow_13_phase1_W_straight.5 tripinfo_flow_13_phase1_W_straight.5" vType="moto" speedFactor="1.14" vaporized=""/>
    <tripinfo id="flow_8_phase1_S_uturn.1" depart="66.00" departLane="W_in_0" departPos="91.52" departSpeed="11.59" departDelay="0.07" arrival="94.00" arrivalLane="N_out_1" arrivalPos="189.60" arrivalSpeed="12.66" duration="28.00" routeLength="307.03" waitingTime="0.00" waitingCount="0" stopTime="0.00" timeLoss="2.86" rerouteNo="0" devices="vehroute_flow_8_phase1_S_uturn.1 tripinfo_flow_8_phase1_S_uturn.1" vType="truck" speedFactor="0.94" vaporized=""/>
    <tripinfo id="flow_13_phase1_W_straight.4" depart="54.00" departLane="W_in_1" departPos="65.33" departSpeed="10.93" departDelay="0.46" arrival="95.00" arrivalLane="E_out_0" arrivalPos="189.60" arrivalSpeed="11.83" duration="41.00" routeLength="334.67" waitingTime="1.00" waitingCount="1" stopTime="0.00" timeLoss="12.74" rerouteNo="0" devices="vehroute_flow_13_phase1_W_straight.4 tripinfo_flow_13_phase1_W_straight.4" vType="bus" speedFactor="0.87" vaporized=""/>
    <tripinfo id="flow_11_phase1_E_right.2" depart="65.00" departLane="N_in_0" departPos="155.68" departSpeed="10.19" departDelay="0.02" arrival="100.00" arrivalLane="S_out_0" arrivalPos="189.60" arrivalSpeed="14.76" duration="35.00" routeLength="244.32" waitingTime="12.00" waitingCount="1" stopTime="0.00" timeLoss="18.88" rerouteNo="0" devices="vehroute_flow_11_phase1_E_right.2 tripinfo_flow_11_phase1_E_right.2" vType="moto" speedFactor="1.14" vaporized=""/>
    <tripinfo id="flow_5_phase1_S_straight.5" depart="67.00" departLane="S_in_1" departPos="172.37" departSpeed="6.94" departDelay="0.85" arrival="101.00" arrivalLane="E_out_0" arrivalPos="189.60" arrivalSpeed="13.29" duration="34.00" routeLength="215.86" waitingTime="10.00" waitingCount="1" stopTime="0.00" timeLoss="17.32" rerouteNo="0" devices="vehroute_flow_5_phase1_S_straight.5 tripinfo_flow_5_phase1_S_straight.5" vType="moto" speedFactor="1.03" vaporized=""/>
    <tripinfo id="flow_4_phase1_N_uturn.1" depart="67.00" departLane="N_in_1" departPos="174.17" departSpeed="8.58" departDelay="0.96" arrival="102.00" arrivalLane="N_out_1" arrivalPos="189.60" arrivalSpeed="12.99" duration="35.00" routeLength="209.70" waitingTime="11.00" waitingCount="1" stopTime="0.00" timeLoss="17.35" rerouteNo="0" devices="vehroute_flow_4_phase1_N_uturn.1 tripinfo_flow_4_phase1_N_uturn.1" vType="moto" speedFactor="0.94" vaporized=""/>
    <tripinfo id="flow_16_phase1_W_uturn.1" depart="67.00" departLane="N_in_1" departPos="39.34" departSpeed="4.81" departDelay="0.80" arrival="103.00" arrivalLane="W_out_0" arrivalPos="189.60" arrivalSpeed="13.70" duration="36.00" routeLength="348.89" waitingTime="1.00" waitingCount="1" stopTime="0.00" timeLoss="10.79" rerouteNo="0" devices="vehroute_flow_16_phase1_W_uturn.1 tripinfo_flow_16_phase1_W_uturn.1" vType="moto" speedFactor="1.04" vaporized=""/>
    <tripinfo id="flow_10_phase1_E_left.1" depart="34.00" departLane="E_in_0" departPos="93.41" departSpeed="9.85" departDelay="0.50" arrival="104.00" arrivalLane="S_out_1" arrivalPos="189.60" arrivalSpeed="10.15" duration="70.00" routeLength="305.14" waitingTime="15.00" waitingCount="3" stopTime="0.00" timeLoss="40.00" rerouteNo="0" devices="vehroute_flow_10_phase1_E_left.1 tripinfo_flow_10_phase1_E_left.1" vType="truck" speedFactor="0.77" vaporized=""/>
    <tripinfo id="flow_1_phase1_N_straight.5" depart="68.00" departLane="N_in_0" departPos="61.32" departSpeed="5.60" departDelay="0.42" arrival="104.00" arrivalLane="S_out_0" arrivalPos="189.60" arrivalSpeed="12.23" duration="36.00" routeLength="338.68" waitingTime="2.00" waitingCount="1" stopTime="0.00" timeLoss="8.58" rerouteNo="0" devices="vehroute_flow_1_phase1_N_straight.5 tripinfo_flow_1_phase1_N_straight.5" vType="moto" speedFactor="0.90" vaporized=""/>
    <tripinfo id="flow_12_phase1_E_uturn.1" depart="66.00" departLane="S_in_1" departPos="65.57" departSpeed="2.22" departDelay="0.19" arrival="106.00" arrivalLane="S_out_1" arrivalPos="189.60" arrivalSpeed="12.27" duration="40.00" routeLength="318.30" waitingTime="2.00" waitingCount="1" stopTime="0.00" timeLoss="14.33" rerouteNo="0" devices="vehroute_flow_12_phase1_E_uturn.1 tripinfo_flow_12_phase1_E_uturn.1" vType="moto" speedFactor="0.95" vaporized=""/>
    <tripinfo id="flow_6_phase1_S_left.2" depart="67.00" departLane="N_in_0" departPos="161.41" departSpeed="1.42" departDelay="0.10" arrival="108.00" arrivalLane="N_out_1" arrivalPos="189.60" arrivalSpeed="12.03" duration="41.00" routeLength="222.46" waitingTime="10.00" waitingCount="1" stopTime="0.00" timeLoss="21.40" rerouteNo="0" devices="vehroute_flow_6_phase1_S_left.2 tripinfo_flow_6_phase1_S_left.2" vType="truck" speedFactor="0.89" vaporized=""/>
    <tripinfo id="flow_5_phase1_S_straight.6" depart="80.00" departLane="S_in_1" departPos="37.04" departSpeed="3.48" departDelay="0.62" arrival="109.00" arrivalLane="E_out_0" arrivalPos="189.60" arrivalSpeed="15.16" duration="29.00" routeLength="351.19" waitingTime="0.00" waitingCount="0" stopTime="0.00" timeLoss="4.49" rerouteNo="0" devices="vehroute_flow_5_phase1_S_straight.6 tripinfo_flow_5_phase1_S_straight.6" vType="moto" speedFactor="1.10" vaporized=""/>
    <tripinfo id="flow_3_phase1_N_right.2" depart="69.00" departLane="N_in_0" departPos="152.01" departSpeed="6.82" departDelay="0.63" arrival="110.00" arrivalLane="N_out_1" arrivalPos="189.60" arrivalSpeed="14.56" duration="41.00" routeLength="231.86" waitingTime="9.00" waitingCount="1" stopTime="0.00" timeLoss="23.76" rerouteNo="0" devices="vehroute_flow_3_phase1_N_right.2 tripinfo_flow_3_phase1_N_right.2" vType="moto" speedFactor="1.10" vaporized=""/>
    <tripinfo id="flow_13_phase1_W_straight.6" depart="81.00" departLane="W_in_1" departPos="47.50" departSpeed="4.35" departDelay="0.70" arrival="114.00" arrivalLane="E_out_0" arrivalPos="189.60" arrivalSpeed="12.57" duration="33.00" routeLength="352.50" waitingTime="0.00" waitingCount="0" stopTime="0.00" timeLoss="6.19" rerouteNo="0" devices="vehroute_flow_13_phase1_W_straight.6 tripinfo_flow_13_phase1_W_straight.6" vType="car" speedFactor="0.98" vaporized=""/>
    <tripinfo id="flow_9_phase1_E_straight.5" depart="65.00" departLane="E_in_1" departPos="19.51" departSpeed="7.94" departDelay="0.62" arrival="115.00" arrivalLane="W_out_0" arrivalPos="189.60" arrivalSpeed="13.35" duration="50.00" routeLength="380.49" waitingTime="11.00" waitingCount="1" stopTime="0.00" timeLoss="21.90" rerouteNo="0" devices="vehroute_flow_9_phase1_E_straight.5 tripinfo_flow_9_phase1_E_straight.5" vType="moto" speedFactor="1.00" vaporized=""/>
    <tripinfo id="flow_9_phase1_E_straight.6" depart="78.00" departLane="E_in_0" departPos="18.52" departSpeed="1.63" departDelay="0.74" arrival="116.00" arrivalLane="W_out_0" arrivalPos="189.60" arrivalSpeed="13.00" duration="38.00" routeLength="381.48" waitingTime="1.00" waitingCount="1" stopTime="0.00" timeLoss="10.83" rerouteNo="0" devices="vehroute_flow_9_phase1_E_straight.6 tripinfo_flow_9_phase1_E_straight.6" vType="moto" speedFactor="1.02" vaporized=""/>
    <tripinfo id="flow_14_phase1_W_left.2" depart="69.00" departLane="W_in_0" departPos="24.55" departSpeed="7.23" departDelay="0.06" arrival="123.00" arrivalLane="N_out_1" arrivalPos="189.60" arrivalSpeed="11.88" duration="54.00" routeLength="374.00" waitingTime="14.00" waitingCount="2" stopTime="0.00" timeLoss="22.71" rerouteNo="0" devices="vehroute_flow_14_phase1_W_left.2 tripinfo_flow_14_phase1_W_left.2" vType="car" speedFactor="0.90" vaporized=""/>
    <tripinfo id="flow_13_phase1_W_straight.7" depart="94.00" departLane="W_in_0" departPos="107.99" departSpeed="0.94" departDelay="0.31" arrival="124.00" arrivalLane="E_out_0" arrivalPos="189.60" arrivalSpeed="10.87" duration="30.00" routeLength="292.01" waitingTime="0.00" waitingCount="0" stopTime="0.00" timeLoss="3.33" rerouteNo="0" devices="vehroute_flow_13_phase1_W_straight.7 tripinfo_flow_13_phase1_W_straight.7" vType="moto" speedFactor="0.80" vaporized=""/>
    <tripinfo id="flow_1_phase1_N_straight.6" depart="82.00" departLane="N_in_0" departPos="36.12" departSpeed="6.34" departDelay="0.90" arrival="127.00" arrivalLane="S_out_0" arrivalPos="189.60" arrivalSpeed="12.84" duration="45.00" routeLength="363.88" waitingTime="11.00" waitingCount="1" stopTime="0.00" timeLoss="18.18" rerouteNo="0" devices="vehroute_flow_1_phase1_N_straight.6 tripinfo_flow_1_phase1_N_straight.6" vType="car" speedFactor="0.98" vaporized=""/>
    <tripinfo id="flow_1_phase1_N_straight.7" depart="95.00" departLane="N_in_0" departPos="140.51" departSpeed="11.07" departDelay="0.39" arrival="129.00" arrivalLane="S_out_0" arrivalPos="189.60" arrivalSpeed="13.84" duration="34.00" routeLength="259.49" waitingTime="9.00" waitingCount="1" stopTime="0.00" timeLoss="15.84" rerouteNo="0" devices="vehroute_flow_1_phase1_N_straight.7 tripinfo_flow_1_phase1_N_straight.7" vType="moto" speedFactor="1.06" vaporized=""/>
    <tripinfo id="flow_5_phase1_S_straight.7" depart="93.00" departLane="S_in_1" departPos="150.35" departSpeed="7.14" departDelay="0.39" arrival="131.00" arrivalLane="E_out_0" arrivalPos="189.60" arrivalSpeed="12.17" duration="38.00" routeLength="237.88" waitingTime="8.00" waitingCount="1" stopTime="0.00" timeLoss="18.02" rerouteNo="0" devices="vehroute_flow_5_phase1_S_straight.7 tripinfo_flow_5_phase1_S_straight.7" vType="bus" speedFactor="0.90" vaporized=""/>
    <tripinfo id="flow_7_phase1_S_right.1" depart="33.00" departLane="E_in_1" departPos="80.24" departSpeed="2.32" departDelay="0.51" arrival="132.00" arrivalLane="S_out_0" arrivalPos="189.60" arrivalSpeed="10.66" duration="99.00" routeLength="318.31" waitingTime="25.00" waitingCount="5" stopTime="0.00" timeLoss="68.73" rerouteNo="0" devices="vehroute_flow_7_phase1_S_right.1 tripinfo_flow_7_phase1_S_right.1" vType="container" speedFactor="0.78" vaporized=""/>
    <tripinfo id="flow_15_phase1_W_right.2" depart="66.00" departLane="N_in_0" departPos="64.25" departSpeed="5.81" departDelay="0.32" arrival="133.00" arrivalLane="E_out_1" arrivalPos="189.60" arrivalSpeed="11.66" duration="67.00" routeLength="334.30" waitingTime="23.00" waitingCount="3" stopTime="0.00" timeLoss="38.51" rerouteNo="0" devices="vehroute_flow_15_phase1_W_right.2 tripinfo_flow_15_phase1_W_right.2" vType="moto" speedFactor="0.89" vaporized=""/>
    <tripinfo id="flow_5_phase1_S_straight.8" depart="106.00" departLane="S_in_1" departPos="58.75" departSpeed="13.10" departDelay="0.16" arrival="133.00" arrivalLane="E_out_0" arrivalPos="189.60" arrivalSpeed="15.29" duration="27.00" routeLength="329.48" waitingTime="0.00" waitingCount="0" stopTime="0.00" timeLoss="5.17" rerouteNo="0" devices="vehroute_flow_5_phase1_S_straight.8 tripinfo_flow_5_phase1_S_straight.8" vType="emergency" speedFactor="1.14" vaporized=""/>
    <tripinfo id="flow_2_phase1_N_left.2" depart="66.00" departLane="N_in_1" departPos="2.77" departSpeed="8.39" departDelay="0.64" arrival="134.00" arrivalLane="E_out_1" arrivalPos="189.60" arrivalSpeed="13.78" duration="68.00" routeLength="395.78" waitingTime="19.00" waitingCount="3" stopTime="0.00" timeLoss="40.99" rerouteNo="0" devices="vehroute_flow_2_phase1_N_left.2 tripinfo_flow_2_phase1_N_left.2" vType="emergency" speedFactor="1.10" vaporized=""/>