<?xml version="1.0" encoding="UTF-8"?>

<!-- generated on 2025-12-08 21:26:37 by Eclipse SUMO sumo Version 1.18.0
<configuration xmlns:xsi="http://www.w3.org/2001/XMLSchema-instance" xsi:noNamespaceSchemaLocation="http://sumo.dlr.de/xsd/sumoConfiguration.xsd">

    <input>
        <net-file value="/workspace/nets/60p2k/net.net.xml"/>
        <route-files value="/workspace/nets/60p2k/route_temp_244_130720908769792_63793894.rou.xml"/>
    </input>

    <output>
        <summary-output value="results/summary_ep_13.xml"/>
        <tripinfo-output value="results/tripinfo_ep_13.xml"/>
        <vehroute-output value="results/vehroute_ep_13.xml"/>
    </output>

    <time>
        <begin value="0"/>
    </time>

    <report>
        <verbose value="true"/>
        <no-step-log value="true"/>
    </report>

    <traci_server>
        <remote-port value="52495"/>
    </traci_server>

    <gui_only>
        <gui-settings-file value="/workspace/nets/60p2k/gui-settings.xml"/>
        <quit-on-end value="true"/>
    </gui_only>

</configuration>
-->

<tripinfos xmlns:xsi="http://www.w3.org/2001/XMLSchema-instance" xsi:noNamespaceSchemaLocation="http://sumo.dlr.de/xsd/tripinfo_file.xsd">
    <tripinfo id="flow_9_phase1_E_straight.0" depart="0.00" departLane="N_in_0" departPos="168.29" departSpeed="10.30" departDelay="0.00" arrival="22.00" arrivalLane="W_out_0" arrivalPos="189.60" arrivalSpeed="11.81" duration="22.00" routeLength="219.94" waitingTime="0.00" waitingCount="0" stopTime="0.00" timeLoss="3.24" rerouteNo="0" devices="vehroute_flow_9_phase1_E_straight.0 tripinfo_flow_9_phase1_E_straight.0" vType="truck" speedFactor="0.90" vaporized=""/>
    <tripinfo id="flow_5_phase1_S_straight.0" depart="0.00" departLane="S_in_1" departPos="107.37" departSpeed="7.21" departDelay="0.00" arrival="24.00" arrivalLane="N_out_1" arrivalPos="189.60" arrivalSpeed="15.92" duration="24.00" routeLength="292.63" waitingTime="0.00" waitingCount="0" stopTime="0.00" timeLoss="5.64" rerouteNo="0" devices="vehroute_flow_5_phase1_S_straight.0 tripinfo_flow_5_phase1_S_straight.0" vType="moto" speedFactor="1.15" vaporized=""/>
    <tripinfo id="flow_8_phase1_S_uturn.0" depart="0.00" departLane="S_in_0" departPos="120.11" departSpeed="4.48" departDelay="0.00" arrival="24.00" arrivalLane="S_out_1" arrivalPos="189.60" arrivalSpeed="13.41" duration="24.00" routeLength="263.76" waitingTime="0.00" waitingCount="0" stopTime="0.00" timeLoss="4.91" rerouteNo="0" devices="vehroute_flow_8_phase1_S_uturn.0 tripinfo_flow_8_phase1_S_uturn.0" vType="moto" speedFactor="1.05" vaporized=""/>
    <tripinfo id="flow_6_phase1_S_left.0" depart="0.00" departLane="S_in_1" departPos="166.01" departSpeed="0.74" departDelay="0.00" arrival="25.00" arrivalLane="W_out_1" arrivalPos="189.60" arrivalSpeed="11.45" duration="25.00" routeLength="232.54" waitingTime="0.00" waitingCount="0" stopTime="0.00" timeLoss="4.36" rerouteNo="0" devices="vehroute_flow_6_phase1_S_left.0 tripinfo_flow_6_phase1_S_left.0" vType="moto" speedFactor="0.88" vaporized=""/>
    <tripinfo id="flow_4_phase1_N_uturn.0" depart="0.00" departLane="N_in_1" departPos="127.60" departSpeed="0.08" departDelay="0.00" arrival="31.00" arrivalLane="N_out_1" arrivalPos="189.60" arrivalSpeed="12.28" duration="31.00" routeLength="256.27" waitingTime="1.00" waitingCount="1" stopTime="0.00" timeLoss="9.85" rerouteNo="0" devices="vehroute_flow_4_phase1_N_uturn.0 tripinfo_flow_4_phase1_N_uturn.0" vType="car" speedFactor="0.92" vaporized=""/>
    <tripinfo id="flow_16_phase1_W_uturn.0" depart="0.00" departLane="W_in_0" departPos="135.67" departSpeed="9.64" departDelay="0.00" arrival="35.00" arrivalLane="W_out_1" arrivalPos="189.60" arrivalSpeed="14.29" duration="35.00" routeLength="248.20" waitingTime="11.00" waitingCount="1" stopTime="0.00" timeLoss="16.81" rerouteNo="0" devices="vehroute_flow_16_phase1_W_uturn.0 tripinfo_flow_16_phase1_W_uturn.0" vType="moto" speedFactor="1.04" vaporized=""/>
    <tripinfo id="flow_12_phase1_E_uturn.0" depart="0.00" departLane="E_in_0" departPos="5.65" departSpeed="13.76" departDelay="0.00" arrival="36.00" arrivalLane="S_out_1" arrivalPos="189.60" arrivalSpeed="13.47" duration="36.00" routeLength="392.90" waitingTime="0.00" waitingCount="0" stopTime="0.00" timeLoss="7.61" rerouteNo="0" devices="vehroute_flow_12_phase1_E_uturn.0 tripinfo_flow_12_phase1_E_uturn.0" vType="moto" speedFactor="1.03" vaporized=""/>
    <tripinfo id="flow_3_phase1_N_right.0" depart="0.00" departLane="W_in_0" departPos="103.38" departSpeed="3.75" departDelay="0.00" arrival="37.00" arrivalLane="W_out_1" arrivalPos="189.60" arrivalSpeed="13.96" duration="37.00" routeLength="280.49" waitingTime="9.00" waitingCount="1" stopTime="0.00" timeLoss="17.88" rerouteNo="0" devices="vehroute_flow_3_phase1_N_right.0 tripinfo_flow_3_phase1_N_right.0" vType="car" speedFactor="1.09" vaporized=""/>
    <tripinfo id="flow_11_phase1_E_right.0" depart="0.00" departLane="E_in_1" departPos="144.95" departSpeed="4.02" departDelay="0.00" arrival="39.00" arrivalLane="N_out_0" arrivalPos="189.60" arrivalSpeed="12.61" duration="39.00" routeLength="243.28" waitingTime="9.00" waitingCount="1" stopTime="0.00" timeLoss="19.88" rerouteNo="0" devices="vehroute_flow_11_phase1_E_right.0 tripinfo_flow_11_phase1_E_right.0" vType="bus" speedFactor="0.96" vaporized=""/>
    <tripinfo id="flow_15_phase1_W_right.0" depart="0.00" departLane="W_in_1" departPos="153.90" departSpeed="6.73" departDelay="0.00" arrival="39.00" arrivalLane="S_out_0" arrivalPos="189.60" arrivalSpeed="10.97" duration="39.00" routeLength="234.33" waitingTime="11.00" waitingCount="1" stopTime="0.00" timeLoss="17.73" rerouteNo="0" devices="vehroute_flow_15_phase1_W_right.0 tripinfo_flow_15_phase1_W_right.0" vType="moto" speedFactor="0.85" vaporized=""/>
    <tripinfo id="flow_14_phase1_W_left.0" depart="0.00" departLane="W_in_1" departPos="42.31" departSpeed="3.71" departDelay="0.00" arrival="42.00" arrivalLane="N_out_1" arrivalPos="189.60" arrivalSpeed="13.32" duration="42.00" routeLength="356.24" waitingTime="5.00" waitingCount="1" stopTime="0.00" timeLoss="15.11" rerouteNo="0" devices="vehroute_flow_14_phase1_W_left.0 tripinfo_flow_14_phase1_W_left.0" vType="moto" speedFactor="1.01" vaporized=""/>
    <tripinfo id="flow_2_phase1_N_left.0" depart="0.00" departLane="N_in_1" departPos="8.27" departSpeed="8.33" departDelay="0.00" arrival="49.00" arrivalLane="E_out_1" arrivalPos="189.60" arrivalSpeed="13.89" duration="49.00" routeLength="390.28" waitingTime="13.00" waitingCount="1" stopTime="0.00" timeLoss="20.40" rerouteNo="0" devices="vehroute_flow_2_phase1_N_left.0 tripinfo_flow_2_phase1_N_left.0" vType="moto" speedFactor="1.02" vaporized=""/>
    <tripinfo id="flow_9_phase1_E_straight.1" depart="13.00" departLane="N_in_1" departPos="58.36" departSpeed="11.07" departDelay="0.12" arrival="52.00" arrivalLane="W_out_0" arrivalPos="189.60" arrivalSpeed="15.79" duration="39.00" routeLength="329.87" waitingTime="6.00" waitingCount="1" stopTime="0.00" timeLoss="17.26" rerouteNo="0" devices="vehroute_flow_9_phase1_E_straight.1 tripinfo_flow_9_phase1_E_straight.1" vType="moto" speedFactor="1.16" vaporized=""/>
    <tripinfo id="flow_1_phase1_N_straight.1" depart="14.00" departLane="N_in_1" departPos="31.93" departSpeed="7.04" departDelay="0.48" arrival="53.00" arrivalLane="S_out_0" arrivalPos="189.60" arrivalSpeed="11.94" duration="39.00" routeLength="368.07" waitingTime="1.00" waitingCount="1" stopTime="0.00" timeLoss="8.03" rerouteNo="0" devices="vehroute_flow_1_phase1_N_straight.1 tripinfo_flow_1_phase1_N_straight.1" vType="moto" speedFactor="0.87" vaporized=""/>
    <tripinfo id="flow_1_phase1_N_straight.0" depart="0.00" departLane="N_in_0" departPos="8.62" departSpeed="8.51" departDelay="0.00" arrival="55.00" arrivalLane="S_out_0" arrivalPos="189.60" arrivalSpeed="11.37" duration="55.00" routeLength="391.38" waitingTime="12.00" waitingCount="1" stopTime="0.00" timeLoss="22.03" rerouteNo="0" devices="vehroute_flow_1_phase1_N_straight.0 tripinfo_flow_1_phase1_N_straight.0" vType="bus" speedFactor="0.86" vaporized=""/>
    <tripinfo id="flow_5_phase1_S_straight.1" depart="14.00" departLane="S_in_1" departPos="121.65" departSpeed="2.93" departDelay="0.77" arrival="55.00" arrivalLane="N_out_0" arrivalPos="189.60" arrivalSpeed="15.97" duration="41.00" routeLength="278.35" waitingTime="8.00" waitingCount="1" stopTime="0.00" timeLoss="22.74" rerouteNo="0" devices="vehroute_flow_5_phase1_S_straight.1 tripinfo_flow_5_phase1_S_straight.1" vType="moto" speedFactor="1.19" vaporized=""/>
    <tripinfo id="flow_7_phase1_S_right.0" depart="0.00" departLane="S_in_0" departPos="8.76" departSpeed="8.07" departDelay="0.00" arrival="58.00" arrivalLane="E_out_0" arrivalPos="189.60" arrivalSpeed="11.79" duration="58.00" routeLength="379.47" waitingTime="12.00" waitingCount="1" stopTime="0.00" timeLoss="24.71" rerouteNo="0" devices="vehroute_flow_7_phase1_S_right.0 tripinfo_flow_7_phase1_S_right.0" vType="container" speedFactor="0.85" vaporized=""/>
    <tripinfo id="flow_9_phase1_E_straight.2" depart="26.00" departLane="N_in_1" departPos="12.70" departSpeed="12.82" departDelay="0.25" arrival="58.00" arrivalLane="W_out_0" arrivalPos="189.60" arrivalSpeed="13.74" duration="32.00" routeLength="375.53" waitingTime="0.00" waitingCount="0" stopTime="0.00" timeLoss="3.49" rerouteNo="0" devices="vehroute_flow_9_phase1_E_straight.2 tripinfo_flow_9_phase1_E_straight.2" vType="moto" speedFactor="0.99" vaporized=""/>
    <tripinfo id="flow_15_phase1_W_right.1" depart="33.00" departLane="W_in_1" departPos="79.10" departSpeed="8.77" departDelay="0.16" arrival="60.00" arrivalLane="S_out_0" arrivalPos="189.60" arrivalSpeed="14.86" duration="27.00" routeLength="309.13" waitingTime="0.00" waitingCount="0" stopTime="0.00" timeLoss="5.20" rerouteNo="0" devices="vehroute_flow_15_phase1_W_right.1 tripinfo_flow_15_phase1_W_right.1" vType="moto" speedFactor="1.08" vaporized=""/>
    <tripinfo id="flow_11_phase1_E_right.1" depart="33.00" departLane="E_in_1" departPos="97.23" departSpeed="5.62" departDelay="0.51" arrival="61.00" arrivalLane="N_out_0" arrivalPos="189.60" arrivalSpeed="14.20" duration="28.00" routeLength="291.00" waitingTime="0.00" waitingCount="0" stopTime="0.00" timeLoss="6.64" rerouteNo="0" devices="vehroute_flow_11_phase1_E_right.1 tripinfo_flow_11_phase1_E_right.1" vType="moto" speedFactor="1.04" vaporized=""/>
    <tripinfo id="flow_3_phase1_N_right.1" depart="35.00" departLane="W_in_0" departPos="93.41" departSpeed="10.85" departDelay="0.82" arrival="65.00" arrivalLane="W_out_1" arrivalPos="189.60" arrivalSpeed="12.18" duration="30.00" routeLength="290.46" waitingTime="0.00" waitingCount="0" stopTime="0.00" timeLoss="4.52" rerouteNo="0" devices="vehroute_flow_3_phase1_N_right.1 tripinfo_flow_3_phase1_N_right.1" vType="moto" speedFactor="0.88" vaporized=""/>
    <tripinfo id="flow_13_phase1_W_straight.0" depart="0.00" departLane="S_in_0" departPos="77.99" departSpeed="3.79" departDelay="0.00" arrival="67.00" arrivalLane="S_out_0" arrivalPos="189.60" arrivalSpeed="10.91" duration="67.00" routeLength="305.88" waitingTime="19.00" waitingCount="2" stopTime="0.00" timeLoss="39.04" rerouteNo="0" devices="vehroute_flow_13_phase1_W_straight.0 tripinfo_flow_13_phase1_W_straight.0" vType="container" speedFactor="0.82" vaporized=""/>
    <tripinfo id="flow_14_phase1_W_left.1" depart="35.00" departLane="W_in_0" departPos="86.42" departSpeed="5.76" departDelay="0.53" arrival="70.00" arrivalLane="N_out_1" arrivalPos="189.60" arrivalSpeed="12.23" duration="35.00" routeLength="312.13" waitingTime="0.00" waitingCount="0" stopTime="0.00" timeLoss="9.03" rerouteNo="0" devices="vehroute_flow_14_phase1_W_left.1 tripinfo_flow_14_phase1_W_left.1" vType="container" speedFactor="0.91" vaporized=""/>
    <tripinfo id="flow_2_phase1_N_left.1" depart="33.00" departLane="N_in_1" departPos="66.71" departSpeed="11.27" departDelay="0.32" arrival="73.00" arrivalLane="E_out_1" arrivalPos="189.60" arrivalSpeed="15.09" duration="40.00" routeLength="331.84" waitingTime="12.00" waitingCount="1" stopTime="0.00" timeLoss="18.07" rerouteNo="0" devices="vehroute_flow_2_phase1_N_left.1 tripinfo_flow_2_phase1_N_left.1" vType="moto" speedFactor="1.12" vaporized=""/>
    <tripinfo id="flow_1_phase1_N_straight.2" depart="28.00" departLane="N_in_0" departPos="8.88" departSpeed="2.33" departDelay="0.97" arrival="77.00" arrivalLane="S_out_0" arrivalPos="189.60" arrivalSpeed="12.85" duration="49.00" routeLength="391.12" waitingTime="10.00" waitingCount="1" stopTime="0.00" timeLoss="17.70" rerouteNo="0" devices="vehroute_flow_1_phase1_N_straight.2 tripinfo_flow_1_phase1_N_straight.2" vType="moto" speedFactor="0.93" vaporized=""/>
    <tripinfo id="flow_1_phase1_N_straight.3" depart="41.00" departLane="N_in_0" departPos="125.48" departSpeed="7.46" departDelay="0.45" arrival="78.00" arrivalLane="S_out_0" arrivalPos="189.60" arrivalSpeed="14.36" duration="37.00" routeLength="274.52" waitingTime="9.00" waitingCount="1" stopTime="0.00" timeLoss="19.27" rerouteNo="0" devices="vehroute_flow_1_phase1_N_straight.3 tripinfo_flow_1_phase1_N_straight.3" vType="moto" speedFactor="1.20" vaporized=""/>
    <tripinfo id="flow_10_phase1_E_left.0" depart="0.00" departLane="S_in_0" departPos="44.88" departSpeed="7.69" departDelay="0.00" arrival="79.00" arrivalLane="S_out_1" arrivalPos="189.60" arrivalSpeed="13.78" duration="79.00" routeLength="338.99" waitingTime="24.00" waitingCount="3" stopTime="0.00" timeLoss="54.30" rerouteNo="0" devices="vehroute_flow_10_phase1_E_left.0 tripinfo_flow_10_phase1_E_left.0" vType="truck" speedFactor="1.02" vaporized=""/>
    <tripinfo id="flow_13_phase1_W_straight.1" depart="14.00" departLane="S_in_1" departPos="52.87" departSpeed="0.43" departDelay="0.62" arrival="81.00" arrivalLane="S_out_1" arrivalPos="189.60" arrivalSpeed="14.84" duration="67.00" routeLength="331.00" waitingTime="14.00" waitingCount="5" stopTime="0.00" timeLoss="44.77" rerouteNo="0" devices="vehroute_flow_13_phase1_W_straight.1 tripinfo_flow_13_phase1_W_straight.1" vType="car" speedFactor="1.12" vaporized=""/>
    <tripinfo id="flow_9_phase1_E_straight.3" depart="39.00" departLane="N_in_0" departPos="56.18" departSpeed="6.79" departDelay="0.37" arrival="84.00" arrivalLane="W_out_0" arrivalPos="189.60" arrivalSpeed="11.80" duration="45.00" routeLength="332.05" waitingTime="4.00" waitingCount="1" stopTime="0.00" timeLoss="15.24" rerouteNo="0" devices="vehroute_flow_9_phase1_E_straight.3 tripinfo_flow_9_phase1_E_straight.3" vType="bus" speedFactor="0.85" vaporized=""/>
    <tripinfo id="flow_11_phase1_E_right.2" depart="65.00" departLane="E_in_1" departPos="112.37" departSpeed="10.82" departDelay="0.02" arrival="87.00" arrivalLane="N_out_0" arrivalPos="189.60" arrivalSpeed="15.45" duration="22.00" routeLength="275.86" waitingTime="0.00" waitingCount="0" stopTime="0.00" timeLoss="2.87" rerouteNo="0" devices="vehroute_flow_11_phase1_E_right.2 tripinfo_flow_11_phase1_E_right.2" vType="moto" speedFactor="1.14" vaporized=""/>
    <tripinfo id="flow_16_phase1_W_uturn.1" depart="67.00" departLane="W_in_1" departPos="177.50" departSpeed="7.04" departDelay="0.80" arrival="87.00" arrivalLane="W_out_1" arrivalPos="189.60" arrivalSpeed="13.27" duration="20.00" routeLength="206.37" waitingTime="0.00" waitingCount="0" stopTime="0.00" timeLoss="4.28" rerouteNo="0" devices="vehroute_flow_16_phase1_W_uturn.1 tripinfo_flow_16_phase1_W_uturn.1" vType="moto" speedFactor="1.04" vaporized=""/>
    <tripinfo id="flow_12_phase1_E_uturn.1" depart="66.00" departLane="E_in_1" departPos="168.21" departSpeed="11.63" departDelay="0.19" arrival="88.00" arrivalLane="S_out_1" arrivalPos="189.60" arrivalSpeed="12.14" duration="22.00" routeLength="230.34" waitingTime="0.00" waitingCount="0" stopTime="0.00" timeLoss="3.64" rerouteNo="0" devices="vehroute_flow_12_phase1_E_uturn.1 tripinfo_flow_12_phase1_E_uturn.1" vType="moto" speedFactor="0.95" vaporized=""/>
    <tripinfo id="flow_14_phase1_W_left.2" depart="69.00" departLane="W_in_1" departPos="137.11" departSpeed="4.03" departDelay="0.06" arrival="95.00" arrivalLane="N_out_1" arrivalPos="189.60" arrivalSpeed="12.21" duration="26.00" routeLength="261.44" waitingTime="0.00" waitingCount="0" stopTime="0.00" timeLoss="4.06" rerouteNo="0" devices="vehroute_flow_14_phase1_W_left.2 tripinfo_flow_14_phase1_W_left.2" vType="car" speedFactor="0.90" vaporized=""/>
    <tripinfo id="flow_15_phase1_W_right.2" depart="66.00" departLane="W_in_0" departPos="31.76" departSpeed="11.15" departDelay="0.32" arrival="99.00" arrivalLane="S_out_0" arrivalPos="189.60" arrivalSpeed="11.67" duration="33.00" routeLength="356.47" waitingTime="0.00" waitingCount="0" stopTime="0.00" timeLoss="3.66" rerouteNo="0" devices="vehroute_flow_15_phase1_W_right.2 tripinfo_flow_15_phase1_W_right.2" vType="moto" speedFactor="0.89" vaporized=""/>
    <tripinfo id="flow_5_phase1_S_straight.2" depart="27.00" departLane="S_in_1" departPos="59.51" departSpeed="13.27" departDelay="0.54" arrival="101.00" arrivalLane="N_out_0" arrivalPos="189.60" arrivalSpeed="12.89" duration="74.00" routeLength="340.49" waitingTime="29.00" waitingCount="3" stopTime="0.00" timeLoss="48.48" rerouteNo="0" devices="vehroute_flow_5_phase1_S_straight.2 tripinfo_flow_5_phase1_S_straight.2" vType="moto" speedFactor="0.96" vaporized=""/>
    <tripinfo id="flow_5_phase1_S_straight.3" depart="40.00" departLane="S_in_0" departPos="132.62" departSpeed="5.13" departDelay="0.31" arrival="103.00" arrivalLane="N_out_0" arrivalPos="189.60" arrivalSpeed="14.24" duration="63.00" routeLength="267.38" waitingTime="23.00" waitingCount="3" stopTime="0.00" timeLoss="44.40" rerouteNo="0" devices="vehroute_flow_5_phase1_S_straight.3 tripinfo_flow_5_phase1_S_straight.3" vType="moto" speedFactor="1.08" vaporized=""/>
    <tripinfo id="flow_9_phase1_E_straight.4" depart="52.00" departLane="N_in_0" departPos="26.76" departSpeed="9.44" departDelay="0.49" arrival="106.00" arrivalLane="W_out_0" arrivalPos="189.60" arrivalSpeed="12.78" duration="54.00" routeLength="361.47" waitingTime="14.00" waitingCount="1" stopTime="0.00" timeLoss="25.42" rerouteNo="0" devices="vehroute_flow_9_phase1_E_straight.4 tripinfo_flow_9_phase1_E_straight.4" vType="bus" speedFactor="0.95" vaporized=""/>
    <tripinfo id="flow_1_phase1_N_straight.4" depart="55.00" departLane="N_in_1" departPos="29.12" departSpeed="10.80" departDelay="0.94" arrival="106.00" arrivalLane="S_out_0" arrivalPos="189.60" arrivalSpeed="12.01" duration="51.00" routeLength="370.88" waitingTime="11.00" waitingCount="1" stopTime="0.00" timeLoss="21.74" rerouteNo="0" devices="vehroute_flow_1_phase1_N_straight.4 tripinfo_flow_1_phase1_N_straight.4" vType="truck" speedFactor="0.92" vaporized=""/>
    <tripinfo id="flow_2_phase1_N_left.2" depart="66.00" departLane="N_in_1" departPos="121.56" departSpeed="1.57" departDelay="0.64" arrival="106.00" arrivalLane="E_out_1" arrivalPos="189.60" arrivalSpeed="15.18" duration="40.00" routeLength="276.99" waitingTime="9.00" waitingCount="1" stopTime="0.00" timeLoss="20.50" rerouteNo="0" devices="vehroute_flow_2_phase1_N_left.2 tripinfo_flow_2_phase1_N_left.2" vType="emergency" speedFactor="1.10" vaporized=""/>
    <tripinfo id="flow_9_phase1_E_straight.5" depart="65.00" departLane="N_in_0" departPos="52.57" departSpeed="8.16" departDelay="0.62" arrival="107.00" arrivalLane="W_out_1" arrivalPos="189.60" arrivalSpeed="12.76" duration="42.00" routeLength="335.66" waitingTime="5.00" waitingCount="1" stopTime="0.00" timeLoss="16.08" rerouteNo="0" devices="vehroute_flow_9_phase1_E_straight.5 tripinfo_flow_9_phase1_E_straight.5" vType="moto" speedFactor="1.00" vaporized=""/>
    <tripinfo id="flow_9_phase1_E_straight.6" depart="78.00" departLane="N_in_1" departPos="152.01" departSpeed="5.20" departDelay="0.74" arrival="108.00" arrivalLane="W_out_0" arrivalPos="189.60" arrivalSpeed="13.04" duration="30.00" routeLength="236.22" waitingTime="2.00" waitingCount="1" stopTime="0.00" timeLoss="12.43" rerouteNo="0" devices="vehroute_flow_9_phase1_E_straight.6 tripinfo_flow_9_phase1_E_straight.6" vType="moto" speedFactor="1.02" vaporized=""/>
    <tripinfo id="flow_1_phase1_N_straight.5" depart="68.00" departLane="N_in_1" departPos="159.96" departSpeed="5.80" departDelay="0.42" arrival="109.00" arrivalLane="S_out_1" arrivalPos="189.60" arrivalSpeed="11.58" duration="41.00" routeLength="240.04" waitingTime="10.00" waitingCount="1" stopTime="0.00" timeLoss="21.01" rerouteNo="0" devices="vehroute_flow_1_phase1_N_straight.5 tripinfo_flow_1_phase1_N_straight.5" vType="moto" speedFactor="0.90" vaporized=""/>
    <tripinfo id="flow_3_phase1_N_right.2" depart="69.00" departLane="W_in_1" departPos="29.07" departSpeed="3.19" departDelay="0.63" arrival="112.00" arrivalLane="W_out_1" arrivalPos="189.60" arrivalSpeed="14.40" duration="43.00" routeLength="354.80" waitingTime="10.00" waitingCount="1" stopTime="0.00" timeLoss="18.93" rerouteNo="0" devices="vehroute_flow_3_phase1_N_right.2 tripinfo_flow_3_phase1_N_right.2" vType="moto" speedFactor="1.10" vaporized=""/>
    <tripinfo id="flow_7_phase1_S_right.1" depart="33.00" departLane="S_in_1" departPos="80.24" departSpeed="2.32" departDelay="0.51" arrival="113.00" arrivalLane="E_out_0" arrivalPos="189.60" arrivalSpeed="10.81" duration="80.00" routeLength="307.99" waitingTime="17.00" waitingCount="3" stopTime="0.00" timeLoss="49.63" rerouteNo="0" devices="vehroute_flow_7_phase1_S_right.1 tripinfo_flow_7_phase1_S_right.1" vType="container" speedFactor="0.78" vaporized=""/>
    <tripinfo id="flow_10_phase1_E_left.1" depart="34.00" departLane="S_in_0" departPos="166.00" departSpeed="1.12" departDelay="0.50" arrival="117.00" arrivalLane="S_out_0" arrivalPos="189.60" arrivalSpeed="10.52" duration="83.00" routeLength="217.87" waitingTime="43.00" waitingCount="4" stopTime="0.00" timeLoss="60.75" rerouteNo="0" devices="vehroute_flow_10_phase1_E_left.1 tripinfo_flow_10_phase1_E_left.1" vType="truck" speedFactor="0.77" vaporized=""/>
    <tripinfo id="flow_11_phase1_E_right.3" depart="98.00" departLane="E_in_0" departPos="140.51" departSpeed="8.68" departDelay="0.53" arrival="123.00" arrivalLane="N_out_0" arrivalPos="189.60" arrivalSpeed="10.96" duration="25.00" routeLength="247.72" waitingTime="0.00" waitingCount="0" stopTime="0.00" timeLoss="2.83" rerouteNo="0" devices="vehroute_flow_11_phase1_E_right.3 tripinfo_flow_11_phase1_E_right.3" vType="moto" speedFactor="0.83" vaporized=""/>
    <tripinfo id="flow_4_phase1_N_uturn.1" depart="67.00" departLane="N_in_1" departPos="89.17" departSpeed="10.40" departDelay="0.96" arrival="128.00" arrivalLane="N_out_1" arrivalPos="189.60" arrivalSpeed="12.72" duration="61.00" routeLength="294.70" waitingTime="23.00" waitingCount="2" stopTime="0.00" timeLoss="36.82" rerouteNo="0" devices="vehroute_flow_4_phase1_N_uturn.1 tripinfo_flow_4_phase1_N_uturn.1" vType="moto" speedFactor="0.94" vaporized=""/>
    <tripinfo id="flow_1_phase1_N_straight.6" depart="82.00" departLane="N_in_1" departPos="37.04" departSpeed="3.10" departDelay="0.90" arrival="128.00" arrivalLane="S_out_0" arrivalPos="189.60" arrivalSpeed="12.50" duration="46.00" routeLength="362.96" waitingTime="8.00" waitingCount="1" stopTime="0.00" timeLoss="19.09" rerouteNo="0" devices="vehroute_flow_1_phase1_N_straight.6 tripinfo_flow_1_phase1_N_straight.6" vType="car" speedFactor="0.98" vaporized=""/>
    <tripinfo id="flow_1_phase1_N_straight.7" depart="95.00" departLane="N_in_1" departPos="150.35" departSpeed="8.40" departDelay="0.39" arrival="128.00" arrivalLane="S_out_1" arrivalPos="189.60" arrivalSpeed="13.72" duration="33.00" routeLength="249.65" waitingTime="7.00" waitingCount="1" stopTime="0.00" timeLoss="15.38" rerouteNo="0" devices="vehroute_flow_1_phase1_N_straight.7 tripinfo_flow_1_phase1_N_straight.7" vType="moto" speedFactor="1.06" vaporized=""/>
    <tripinfo id="flow_9_phase1_E_straight.7" depart="91.00" departLane="N_in_1" departPos="47.50" departSpeed="4.50" departDelay="0.86" arrival="129.00" arrivalLane="W_out_0" arrivalPos="189.60" arrivalSpeed="12.81" duration="38.00" routeLength="340.73" waitingTime="4.00" waitingCount="1" stopTime="0.00" timeLoss="12.58" rerouteNo="0" devices="vehroute_flow_9_phase1_E_straight.7 tripinfo_flow_9_phase1_E_straight.7" vType="moto" speedFactor="1.01" vaporized=""/>
    <tripinfo id="flow_9_phase1_E_straight.8" depart="104.00" departLane="N_in_0" departPos="178.62" departSpeed="1.27" departDelay="0.98" arrival="132.00" arrivalLane="W_out_0" arrivalPos="189.60" arrivalSpeed="12.61" duration="28.00" routeLength="209.61" waitingTime="3.00" waitingCount="1" stopTime="0.00" timeLoss="10.84" rerouteNo="0" devices="vehroute_flow_9_phase1_E_straight.8 tripinfo_flow_9_phase1_E_straight.8" vType="moto" speedFactor="0.94" vaporized=""/>
    <tripinfo id="flow_2_phase1_N_left.3" depart="99.00" departLane="N_in_1" departPos="86.40" departSpeed="1.47" departDelay="0.96" arrival="133.00" arrivalLane="E_out_1" arrivalPos="189.60" arrivalSpeed="11.24" duration="34.00" routeLength="312.15" waitingTime="0.00" waitingCount="0" stopTime="0.00" timeLoss="7.06" rerouteNo="0" devices="vehroute_flow_2_phase1_N_left.3 tripinfo_flow_2_phase1_N_left.3" vType="moto" speedFactor="0.89" vaporized=""/>
    <tripinfo id="flow_15_phase1_W_right.3" depart="99.00" departLane="W_in_1" departPos="16.13" departSpeed="9.42" departDelay="0.49" arrival="138.00" arrivalLane="S_out_0" arrivalPos="189.60" arrivalSpeed="15.43" duration="39.00" routeLength="372.10" waitingTime="9.00" waitingCount="1" stopTime="0.00" timeLoss="14.26" rerouteNo="0" devices="vehroute_flow_15_phase1_W_right.3 tripinfo_flow_15_phase1_W_right.3" vType="moto" speedFactor="1.17" vaporized=""/>
    <tripinfo id="flow_14_phase1_W_left.3" depart="104.00" departLane="W_in_0" departPos="173.60" departSpeed="3.35" departDelay="0.59" arrival="139.00" arrivalLane="N_out_1" arrivalPos="189.60" arrivalSpeed="14.40" duration="35.00" routeLength="224.95" waitingTime="13.00" waitingCount="1" stopTime="0.00" timeLoss="19.17" rerouteNo="0" devices="vehroute_flow_14_phase1_W_left.3 tripinfo_flow_14_phase1_W_left.3" vType="moto" speedFactor="1.09" vaporized=""/>
    <tripinfo id="flow_13_phase1_W_straight.2" depart="27.00" departLane="S_in_1" departPos="107.53" departSpeed="1.15" departDelay="0.23" arrival="141.00" arrivalLane="S_out_1" arrivalPos="189.60" arrivalSpeed="12.82" duration="114.00" routeLength="276.34" waitingTime="49.00" waitingCount="8" stopTime="0.00" timeLoss="91.97" rerouteNo="0" devices="vehroute_flow_13_phase1_W_straight.2 tripinfo_flow_13_phase1_W_straight.2" vType="bus" speedFactor="0.97" vaporized=""/>
    <tripinfo id="flow_3_phase1_N_right.3" depart="103.00" departLane="W_in_1" departPos="109.81" departSpeed="0.16" departDelay="0.45" arrival="143.00" arrivalLane="W_out_1" arrivalPos="189.60" arrivalSpeed="13.05" duration="40.00" routeLength="274.06" waitingTime="8.00" waitingCount="1" stopTime="0.00" timeLoss="17.60" rerouteNo="0" devices="vehroute_flow_3_phase1_N_right.3 tripinfo_flow_3_phase1_N_right.3" vType="moto" speedFactor="0.96" vaporized=""/>
    <tripinfo id="flow_1_phase1_N_straight.9" depart="122.00" departLane="N_in_1" departPos="53.99" departSpeed="4.61" departDelay="0.36" arrival="152.00" arrivalLane="S_out_1" arrivalPos="189.60" arrivalSpeed="13.32" duration="30.00" routeLength="346.01" waitingTime="0.00" waitingCount="0" stopTime="0.00" timeLoss="3.85" rerouteNo="0" devices="vehroute_flow_1_phase1_N_straight.9 tripinfo_flow_1_phase1_N_straight.9" vType="truck" speedFactor="0.97" vaporized=""/>
    <tripinfo id="flow_1_phase1_N_straight.8" depart="109.00" departLane="N_in_1" departPos="58.75" departSpeed="11.20" departDelay="0.87" arrival="154.00" arrivalLane="S_out_0" arrivalPos="189.60" arrivalSpeed="13.00" duration="45.00" routeLength="341.25" waitingTime="12.00" waitingCount="1" stopTime="0.00" timeLoss="18.84" rerouteNo="0" devices="vehroute_flow_1_phase1_N_straight.8 tripinfo_flow_1_phase1_N_straight.8" vType="moto" speedFactor="0.97" vaporized=""/>
    <tripinfo id="flow_1_phase1_N_straight.10" depart="136.00" departLane="N_in_1" departPos="168.88" departSpeed="13.38" departDelay="0.84" arrival="154.00" arrivalLane="S_out_1" arrivalPos="189.60" arrivalSpeed="13.95" duration="18.00" routeLength="231.12" waitingTime="0.00" waitingCount="0" stopTime="0.00" timeLoss="1.36" rerouteNo="0" devices="vehroute_flow_1_phase1_N_straight.10 tripinfo_flow_1_phase1_N_straight.10" vType="bus" speedFactor="1.03" vaporized=""/>
    <tripinfo id="flow_7_phase1_S_right.2" depart="65.00" departLane="S_in_0" departPos="125.76" departSpeed="4.60" departDelay="0.01" arrival="156.00" arrivalLane="E_out_0" arrivalPos="189.60" arrivalSpeed="13.08" duration="91.00" routeLength="262.47" waitingTime="51.00" waitingCount="3" stopTime="0.00" timeLoss="70.95" rerouteNo="0" devices="vehroute_flow_7_phase1_S_right.2 tripinfo_flow_7_phase1_S_right.2" vType="moto" speedFactor="1.03" vaporized=""/>
    <tripinfo id="flow_5_phase1_S_straight.4" depart="53.00" departLane="S_in_0" departPos="91.01" departSpeed="5.01" departDelay="0.08" arrival="157.00" arrivalLane="N_out_0" arrivalPos="189.60" arrivalSpeed="12.94" duration="104.00" routeLength="308.99" waitingTime="31.00" waitingCount="7" stopTime="0.00" timeLoss="81.10" rerouteNo="0" devices="vehroute_flow_5_phase1_S_straight.4 tripinfo_flow_5_phase1_S_straight.4" vType="container" speedFactor="0.97" vaporized=""/>
    <tripinfo id="flow_9_phase1_E_straight.9" depart="116.00" departLane="N_in_0" departPos="2.52" departSpeed="5.09" departDelay="0.11" arrival="157.00" arrivalLane="W_out_0" arrivalPos="189.60" arrivalSpeed="13.72" duration="41.00" routeLength="385.71" waitingTime="0.00" waitingCount="0" stopTime="0.00" timeLoss="12.62" rerouteNo="0" devices="vehroute_flow_9_phase1_E_straight.9 tripinfo_flow_9_phase1_E_straight.9" vType="truck" speedFactor="1.00" vaporized=""/>