<?xml version="1.0" encoding="UTF-8"?>

<!-- generated on 2025-12-08 21:21:06 by Eclipse SUMO sumo Version 1.18.0
<configuration xmlns:xsi="http://www.w3.org/2001/XMLSchema-instance" xsi:noNamespaceSchemaLocation="http://sumo.dlr.de/xsd/sumoConfiguration.xsd">

    <input>
        <net-file value="/workspace/nets/60p2k/net.net.xml"/>
        <route-files value="/workspace/nets/60p2k/route_temp_244_130720908769792_63793894.rou.xml"/>
    </input>

    <output>
        <summary-output value="results/summary_ep_1.xml"/>
        <tripinfo-output value="results/tripinfo_ep_1.xml"/>
        <vehroute-output value="results/vehroute_ep_1.xml"/>
    </output>

    <time>
        <begin value="0"/>
    </time>

    <report>
        <verbose value="true"/>
        <no-step-log value="true"/>
    </report>

    <traci_server>
        <remote-port value="60751"/>
    </traci_server>

    <gui_only>
        <gui-settings-file value="/workspace/nets/60p2k/gui-settings.xml"/>
        <quit-on-end value="true"/>
    </gui_only>

</configuration>
-->

<tripinfos xmlns:xsi="http://www.w3.org/2001/XMLSchema-instance" xsi:noNamespaceSchemaLocation="http://sumo.dlr.de/xsd/tripinfo_file.xsd">
    <tripinfo id="flow_3_phase1_N_right.0" depart="0.00" departLane="N_in_0" departPos="103.38" departSpeed="3.75" departDelay="0.00" arrival="24.00" arrivalLane="W_out_0" arrivalPos="189.60" arrivalSpeed="14.93" duration="24.00" routeLength="284.85" waitingTime="0.00" waitingCount="0" stopTime="0.00" timeLoss="4.48" rerouteNo="0" devices="vehroute_flow_3_phase1_N_right.0 tripinfo_flow_3_phase1_N_right.0" vType="car" speedFactor="1.09" vaporized=""/>
    <tripinfo id="flow_6_phase1_S_left.0" depart="0.00" departLane="S_in_1" departPos="166.01" departSpeed="0.74" departDelay="0.00" arrival="25.00" arrivalLane="W_out_1" arrivalPos="189.60" arrivalSpeed="11.84" duration="25.00" routeLength="232.54" waitingTime="0.00" waitingCount="0" stopTime="0.00" timeLoss="4.35" rerouteNo="0" devices="vehroute_flow_6_phase1_S_left.0 tripinfo_flow_6_phase1_S_left.0" vType="moto" speedFactor="0.88" vaporized=""/>
    <tripinfo id="flow_16_phase1_W_uturn.0" depart="0.00" departLane="S_in_1" departPos="126.68" departSpeed="1.28" departDelay="0.00" arrival="25.00" arrivalLane="S_out_1" arrivalPos="189.60" arrivalSpeed="13.18" duration="25.00" routeLength="257.19" waitingTime="0.00" waitingCount="0" stopTime="0.00" timeLoss="6.35" rerouteNo="0" devices="vehroute_flow_16_phase1_W_uturn.0 tripinfo_flow_16_phase1_W_uturn.0" vType="moto" speedFactor="1.04" vaporized=""/>
    <tripinfo id="flow_5_phase1_S_straight.0" depart="0.00" departLane="S_in_1" departPos="107.37" departSpeed="7.21" departDelay="0.00" arrival="26.00" arrivalLane="N_out_0" arrivalPos="189.60" arrivalSpeed="15.37" duration="26.00" routeLength="292.63" waitingTime="0.00" waitingCount="0" stopTime="0.00" timeLoss="7.44" rerouteNo="0" devices="vehroute_flow_5_phase1_S_straight.0 tripinfo_flow_5_phase1_S_straight.0" vType="moto" speedFactor="1.15" vaporized=""/>
    <tripinfo id="flow_4_phase1_N_uturn.0" depart="0.00" departLane="N_in_1" departPos="127.60" departSpeed="0.08" departDelay="0.00" arrival="31.00" arrivalLane="N_out_1" arrivalPos="189.60" arrivalSpeed="11.84" duration="31.00" routeLength="256.27" waitingTime="1.00" waitingCount="1" stopTime="0.00" timeLoss="9.38" rerouteNo="0" devices="vehroute_flow_4_phase1_N_uturn.0 tripinfo_flow_4_phase1_N_uturn.0" vType="car" speedFactor="0.92" vaporized=""/>
    <tripinfo id="flow_10_phase1_E_left.0" depart="0.00" departLane="S_in_0" departPos="44.88" departSpeed="7.69" departDelay="0.00" arrival="31.00" arrivalLane="E_out_0" arrivalPos="189.60" arrivalSpeed="13.76" duration="31.00" routeLength="343.35" waitingTime="0.00" waitingCount="0" stopTime="0.00" timeLoss="5.25" rerouteNo="0" devices="vehroute_flow_10_phase1_E_left.0 tripinfo_flow_10_phase1_E_left.0" vType="truck" speedFactor="1.02" vaporized=""/>
    <tripinfo id="flow_12_phase1_E_uturn.0" depart="0.00" departLane="E_in_0" departPos="5.65" departSpeed="13.76" departDelay="0.00" arrival="36.00" arrivalLane="E_out_1" arrivalPos="189.60" arrivalSpeed="14.20" duration="36.00" routeLength="378.22" waitingTime="2.00" waitingCount="1" stopTime="0.00" timeLoss="8.16" rerouteNo="0" devices="vehroute_flow_12_phase1_E_uturn.0 tripinfo_flow_12_phase1_E_uturn.0" vType="moto" speedFactor="1.03" vaporized=""/>
    <tripinfo id="flow_7_phase1_S_right.0" depart="0.00" departLane="W_in_0" departPos="8.76" departSpeed="8.07" departDelay="0.00" arrival="38.00" arrivalLane="E_out_0" arrivalPos="189.60" arrivalSpeed="11.22" duration="38.00" routeLength="391.24" waitingTime="0.00" waitingCount="0" stopTime="0.00" timeLoss="4.80" rerouteNo="0" devices="vehroute_flow_7_phase1_S_right.0 tripinfo_flow_7_phase1_S_right.0" vType="container" speedFactor="0.85" vaporized=""/>
    <tripinfo id="flow_14_phase1_W_left.0" depart="0.00" departLane="E_in_1" departPos="42.31" departSpeed="3.71" departDelay="0.00" arrival="38.00" arrivalLane="W_out_1" arrivalPos="189.60" arrivalSpeed="12.97" duration="38.00" routeLength="357.69" waitingTime="1.00" waitingCount="1" stopTime="0.00" timeLoss="11.78" rerouteNo="0" devices="vehroute_flow_14_phase1_W_left.0 tripinfo_flow_14_phase1_W_left.0" vType="moto" speedFactor="1.01" vaporized=""/>
    <tripinfo id="flow_9_phase1_E_straight.1" depart="13.00" departLane="E_in_0" departPos="131.13" departSpeed="9.54" departDelay="0.12" arrival="39.00" arrivalLane="W_out_1" arrivalPos="189.60" arrivalSpeed="15.26" duration="26.00" routeLength="268.87" waitingTime="0.00" waitingCount="0" stopTime="0.00" timeLoss="8.81" rerouteNo="0" devices="vehroute_flow_9_phase1_E_straight.1 tripinfo_flow_9_phase1_E_straight.1" vType="moto" speedFactor="1.16" vaporized=""/>
    <tripinfo id="flow_9_phase1_E_straight.0" depart="0.00" departLane="E_in_0" departPos="168.29" departSpeed="9.83" departDelay="0.00" arrival="41.00" arrivalLane="W_out_0" arrivalPos="189.60" arrivalSpeed="12.31" duration="41.00" routeLength="231.71" waitingTime="12.00" waitingCount="1" stopTime="0.00" timeLoss="21.95" rerouteNo="0" devices="vehroute_flow_9_phase1_E_straight.0 tripinfo_flow_9_phase1_E_straight.0" vType="truck" speedFactor="0.90" vaporized=""/>
    <tripinfo id="flow_8_phase1_S_uturn.0" depart="0.00" departLane="W_in_0" departPos="120.11" departSpeed="4.48" departDelay="0.00" arrival="42.00" arrivalLane="N_out_1" arrivalPos="189.60" arrivalSpeed="13.75" duration="42.00" routeLength="278.44" waitingTime="12.00" waitingCount="2" stopTime="0.00" timeLoss="22.01" rerouteNo="0" devices="vehroute_flow_8_phase1_S_uturn.0 tripinfo_flow_8_phase1_S_uturn.0" vType="moto" speedFactor="1.05" vaporized=""/>
    <tripinfo id="flow_11_phase1_E_right.0" depart="0.00" departLane="E_in_1" departPos="144.95" departSpeed="4.02" departDelay="0.00" arrival="42.00" arrivalLane="N_out_0" arrivalPos="189.60" arrivalSpeed="12.91" duration="42.00" routeLength="243.28" waitingTime="10.00" waitingCount="1" stopTime="0.00" timeLoss="22.28" rerouteNo="0" devices="vehroute_flow_11_phase1_E_right.0 tripinfo_flow_11_phase1_E_right.0" vType="bus" speedFactor="0.96" vaporized=""/>
    <tripinfo id="flow_2_phase1_N_left.0" depart="0.00" departLane="W_in_1" departPos="8.27" departSpeed="8.33" departDelay="0.00" arrival="45.00" arrivalLane="W_out_1" arrivalPos="189.60" arrivalSpeed="13.71" duration="45.00" routeLength="375.60" waitingTime="5.00" waitingCount="2" stopTime="0.00" timeLoss="17.10" rerouteNo="0" devices="vehroute_flow_2_phase1_N_left.0 tripinfo_flow_2_phase1_N_left.0" vType="moto" speedFactor="1.02" vaporized=""/>
    <tripinfo id="flow_5_phase1_S_straight.1" depart="14.00" departLane="S_in_1" departPos="31.93" departSpeed="9.28" departDelay="0.77" arrival="46.00" arrivalLane="N_out_0" arrivalPos="189.60" arrivalSpeed="15.04" duration="32.00" routeLength="368.07" waitingTime="0.00" waitingCount="0" stopTime="0.00" timeLoss="8.84" rerouteNo="0" devices="vehroute_flow_5_phase1_S_straight.1 tripinfo_flow_5_phase1_S_straight.1" vType="moto" speedFactor="1.19" vaporized=""/>
    <tripinfo id="flow_15_phase1_W_right.0" depart="0.00" departLane="W_in_1" departPos="45.77" departSpeed="6.73" departDelay="0.00" arrival="47.00" arrivalLane="N_out_1" arrivalPos="189.60" arrivalSpeed="11.04" duration="47.00" routeLength="352.78" waitingTime="6.00" waitingCount="2" stopTime="0.00" timeLoss="15.68" rerouteNo="0" devices="vehroute_flow_15_phase1_W_right.0 tripinfo_flow_15_phase1_W_right.0" vType="moto" speedFactor="0.85" vaporized=""/>
    <tripinfo id="flow_13_phase1_W_straight.0" depart="0.00" departLane="S_in_0" departPos="77.99" departSpeed="3.79" departDelay="0.00" arrival="58.00" arrivalLane="S_out_0" arrivalPos="189.60" arrivalSpeed="11.32" duration="58.00" routeLength="305.88" waitingTime="14.00" waitingCount="1" stopTime="0.00" timeLoss="29.51" rerouteNo="0" devices="vehroute_flow_13_phase1_W_straight.0 tripinfo_flow_13_phase1_W_straight.0" vType="container" speedFactor="0.82" vaporized=""/>
    <tripinfo id="flow_1_phase1_N_straight.0" depart="0.00" departLane="S_in_0" departPos="8.62" departSpeed="8.51" departDelay="0.00" arrival="61.00" arrivalLane="S_out_1" arrivalPos="189.60" arrivalSpeed="11.78" duration="61.00" routeLength="375.25" waitingTime="12.00" waitingCount="1" stopTime="0.00" timeLoss="27.82" rerouteNo="0" devices="vehroute_flow_1_phase1_N_straight.0 tripinfo_flow_1_phase1_N_straight.0" vType="bus" speedFactor="0.86" vaporized=""/>
    <tripinfo id="flow_9_phase1_E_straight.2" depart="26.00" departLane="E_in_1" departPos="52.87" departSpeed="0.38" departDelay="0.25" arrival="63.00" arrivalLane="W_out_0" arrivalPos="189.60" arrivalSpeed="12.52" duration="37.00" routeLength="347.13" waitingTime="0.00" waitingCount="0" stopTime="0.00" timeLoss="11.01" rerouteNo="0" devices="vehroute_flow_9_phase1_E_straight.2 tripinfo_flow_9_phase1_E_straight.2" vType="moto" speedFactor="0.99" vaporized=""/>
    <tripinfo id="flow_11_phase1_E_right.1" depart="33.00" departLane="E_in_0" departPos="73.90" departSpeed="8.86" departDelay="0.51" arrival="63.00" arrivalLane="N_out_0" arrivalPos="189.60" arrivalSpeed="13.79" duration="30.00" routeLength="314.33" waitingTime="0.00" waitingCount="0" stopTime="0.00" timeLoss="7.14" rerouteNo="0" devices="vehroute_flow_11_phase1_E_right.1 tripinfo_flow_11_phase1_E_right.1" vType="moto" speedFactor="1.04" vaporized=""/>
    <tripinfo id="flow_10_phase1_E_left.1" depart="34.00" departLane="S_in_0" departPos="166.00" departSpeed="1.12" departDelay="0.50" arrival="63.00" arrivalLane="E_out_0" arrivalPos="189.60" arrivalSpeed="9.93" duration="29.00" routeLength="222.23" waitingTime="0.00" waitingCount="0" stopTime="0.00" timeLoss="6.92" rerouteNo="0" devices="vehroute_flow_10_phase1_E_left.1 tripinfo_flow_10_phase1_E_left.1" vType="truck" speedFactor="0.77" vaporized=""/>
    <tripinfo id="flow_14_phase1_W_left.1" depart="35.00" departLane="E_in_0" departPos="86.42" departSpeed="7.58" departDelay="0.53" arrival="63.00" arrivalLane="W_out_1" arrivalPos="189.60" arrivalSpeed="12.19" duration="28.00" routeLength="313.58" waitingTime="0.00" waitingCount="0" stopTime="0.00" timeLoss="2.89" rerouteNo="0" devices="vehroute_flow_14_phase1_W_left.1 tripinfo_flow_14_phase1_W_left.1" vType="container" speedFactor="0.91" vaporized=""/>
    <tripinfo id="flow_7_phase1_S_right.1" depart="33.00" departLane="W_in_1" departPos="128.68" departSpeed="2.32" departDelay="0.51" arrival="65.00" arrivalLane="E_out_0" arrivalPos="189.60" arrivalSpeed="10.87" duration="32.00" routeLength="271.32" waitingTime="0.00" waitingCount="0" stopTime="0.00" timeLoss="6.83" rerouteNo="0" devices="vehroute_flow_7_phase1_S_right.1 tripinfo_flow_7_phase1_S_right.1" vType="container" speedFactor="0.78" vaporized=""/>
    <tripinfo id="flow_2_phase1_N_left.1" depart="33.00" departLane="W_in_1" departPos="66.71" departSpeed="11.27" departDelay="0.32" arrival="70.00" arrivalLane="W_out_1" arrivalPos="189.60" arrivalSpeed="15.31" duration="37.00" routeLength="317.16" waitingTime="1.00" waitingCount="1" stopTime="0.00" timeLoss="14.90" rerouteNo="0" devices="vehroute_flow_2_phase1_N_left.1 tripinfo_flow_2_phase1_N_left.1" vType="moto" speedFactor="1.12" vaporized=""/>
    <tripinfo id="flow_9_phase1_E_straight.3" depart="39.00" departLane="E_in_0" departPos="56.18" departSpeed="6.79" departDelay="0.37" arrival="70.00" arrivalLane="W_out_0" arrivalPos="189.60" arrivalSpeed="11.46" duration="31.00" routeLength="343.82" waitingTime="0.00" waitingCount="0" stopTime="0.00" timeLoss="1.85" rerouteNo="0" devices="vehroute_flow_9_phase1_E_straight.3 tripinfo_flow_9_phase1_E_straight.3" vType="bus" speedFactor="0.85" vaporized=""/>
    <tripinfo id="flow_15_phase1_W_right.1" depart="33.00" departLane="W_in_1" departPos="110.92" departSpeed="2.76" departDelay="0.16" arrival="72.00" arrivalLane="N_out_1" arrivalPos="189.60" arrivalSpeed="14.67" duration="39.00" routeLength="287.63" waitingTime="6.00" waitingCount="1" stopTime="0.00" timeLoss="18.45" rerouteNo="0" devices="vehroute_flow_15_phase1_W_right.1 tripinfo_flow_15_phase1_W_right.1" vType="moto" speedFactor="1.08" vaporized=""/>
    <tripinfo id="flow_13_phase1_W_straight.1" depart="14.00" departLane="S_in_1" departPos="121.65" departSpeed="2.86" departDelay="0.62" arrival="73.00" arrivalLane="S_out_1" arrivalPos="189.60" arrivalSpeed="15.56" duration="59.00" routeLength="262.22" waitingTime="21.00" waitingCount="2" stopTime="0.00" timeLoss="41.07" rerouteNo="0" devices="vehroute_flow_13_phase1_W_straight.1 tripinfo_flow_13_phase1_W_straight.1" vType="car" speedFactor="1.12" vaporized=""/>
    <tripinfo id="flow_5_phase1_S_straight.3" depart="40.00" departLane="S_in_0" departPos="132.62" departSpeed="5.13" departDelay="0.31" arrival="74.00" arrivalLane="N_out_0" arrivalPos="189.60" arrivalSpeed="14.53" duration="34.00" routeLength="267.38" waitingTime="8.00" waitingCount="1" stopTime="0.00" timeLoss="15.83" rerouteNo="0" devices="vehroute_flow_5_phase1_S_straight.3 tripinfo_flow_5_phase1_S_straight.3" vType="moto" speedFactor="1.08" vaporized=""/>
    <tripinfo id="flow_3_phase1_N_right.1" depart="35.00" departLane="N_in_0" departPos="93.41" departSpeed="11.32" departDelay="0.82" arrival="76.00" arrivalLane="W_out_0" arrivalPos="189.60" arrivalSpeed="11.93" duration="41.00" routeLength="294.82" waitingTime="10.00" waitingCount="1" stopTime="0.00" timeLoss="16.27" rerouteNo="0" devices="vehroute_flow_3_phase1_N_right.1 tripinfo_flow_3_phase1_N_right.1" vType="moto" speedFactor="0.88" vaporized=""/>
    <tripinfo id="flow_1_phase1_N_straight.1" depart="14.00" departLane="S_in_1" departPos="58.36" departSpeed="11.64" departDelay="0.48" arrival="81.00" arrivalLane="S_out_0" arrivalPos="189.60" arrivalSpeed="11.08" duration="67.00" routeLength="325.51" waitingTime="18.00" waitingCount="2" stopTime="0.00" timeLoss="38.14" rerouteNo="0" devices="vehroute_flow_1_phase1_N_straight.1 tripinfo_flow_1_phase1_N_straight.1" vType="moto" speedFactor="0.87" vaporized=""/>
    <tripinfo id="flow_5_phase1_S_straight.2" depart="27.00" departLane="S_in_1" departPos="12.70" departSpeed="12.41" departDelay="0.54" arrival="82.00" arrivalLane="N_out_0" arrivalPos="189.60" arrivalSpeed="12.89" duration="55.00" routeLength="387.30" waitingTime="13.00" waitingCount="1" stopTime="0.00" timeLoss="25.69" rerouteNo="0" devices="vehroute_flow_5_phase1_S_straight.2 tripinfo_flow_5_phase1_S_straight.2" vType="moto" speedFactor="0.96" vaporized=""/>
    <tripinfo id="flow_13_phase1_W_straight.2" depart="27.00" departLane="S_in_1" departPos="59.51" departSpeed="13.32" departDelay="0.23" arrival="84.00" arrivalLane="S_out_1" arrivalPos="189.60" arrivalSpeed="13.19" duration="57.00" routeLength="324.36" waitingTime="9.00" waitingCount="1" stopTime="0.00" timeLoss="31.54" rerouteNo="0" devices="vehroute_flow_13_phase1_W_straight.2 tripinfo_flow_13_phase1_W_straight.2" vType="bus" speedFactor="0.97" vaporized=""/>
    <tripinfo id="flow_1_phase1_N_straight.3" depart="41.00" departLane="S_in_0" departPos="125.48" departSpeed="7.46" departDelay="0.45" arrival="86.00" arrivalLane="S_out_1" arrivalPos="189.60" arrivalSpeed="14.99" duration="45.00" routeLength="258.39" waitingTime="15.00" waitingCount="1" stopTime="0.00" timeLoss="28.06" rerouteNo="0" devices="vehroute_flow_1_phase1_N_straight.3 tripinfo_flow_1_phase1_N_straight.3" vType="moto" speedFactor="1.20" vaporized=""/>
    <tripinfo id="flow_3_phase1_N_right.2" depart="69.00" departLane="N_in_1" departPos="174.35" departSpeed="3.00" departDelay="0.63" arrival="87.00" arrivalLane="W_out_0" arrivalPos="189.60" arrivalSpeed="15.00" duration="18.00" routeLength="213.88" waitingTime="0.00" waitingCount="0" stopTime="0.00" timeLoss="3.51" rerouteNo="0" devices="vehroute_flow_3_phase1_N_right.2 tripinfo_flow_3_phase1_N_right.2" vType="moto" speedFactor="1.10" vaporized=""/>
    <tripinfo id="flow_6_phase1_S_left.1" depart="34.00" departLane="S_in_1" departPos="4.52" departSpeed="5.31" departDelay="0.55" arrival="88.00" arrivalLane="W_out_1" arrivalPos="189.60" arrivalSpeed="13.44" duration="54.00" routeLength="394.03" waitingTime="7.00" waitingCount="1" stopTime="0.00" timeLoss="26.32" rerouteNo="0" devices="vehroute_flow_6_phase1_S_left.1 tripinfo_flow_6_phase1_S_left.1" vType="moto" speedFactor="1.05" vaporized=""/>
    <tripinfo id="flow_1_phase1_N_straight.2" depart="28.00" departLane="S_in_1" departPos="8.88" departSpeed="1.11" departDelay="0.97" arrival="90.00" arrivalLane="S_out_1" arrivalPos="189.60" arrivalSpeed="11.67" duration="62.00" routeLength="374.99" waitingTime="8.00" waitingCount="1" stopTime="0.00" timeLoss="31.03" rerouteNo="0" devices="vehroute_flow_1_phase1_N_straight.2 tripinfo_flow_1_phase1_N_straight.2" vType="moto" speedFactor="0.93" vaporized=""/>
    <tripinfo id="flow_13_phase1_W_straight.3" depart="41.00" departLane="S_in_1" departPos="23.57" departSpeed="4.10" departDelay="0.85" arrival="91.00" arrivalLane="S_out_1" arrivalPos="189.60" arrivalSpeed="13.88" duration="50.00" routeLength="360.30" waitingTime="6.00" waitingCount="1" stopTime="0.00" timeLoss="24.37" rerouteNo="0" devices="vehroute_flow_13_phase1_W_straight.3 tripinfo_flow_13_phase1_W_straight.3" vType="car" speedFactor="1.05" vaporized=""/>
    <tripinfo id="flow_1_phase1_N_straight.4" depart="55.00" departLane="S_in_1" departPos="65.33" departSpeed="11.56" departDelay="0.94" arrival="98.00" arrivalLane="S_out_1" arrivalPos="189.60" arrivalSpeed="12.24" duration="43.00" routeLength="318.54" waitingTime="0.00" waitingCount="0" stopTime="0.00" timeLoss="16.90" rerouteNo="0" devices="vehroute_flow_1_phase1_N_straight.4 tripinfo_flow_1_phase1_N_straight.4" vType="truck" speedFactor="0.92" vaporized=""/>
    <tripinfo id="flow_4_phase1_N_uturn.1" depart="67.00" departLane="N_in_0" departPos="64.25" departSpeed="6.13" departDelay="0.96" arrival="98.00" arrivalLane="N_out_1" arrivalPos="189.60" arrivalSpeed="12.17" duration="31.00" routeLength="319.62" waitingTime="0.00" waitingCount="0" stopTime="0.00" timeLoss="4.38" rerouteNo="0" devices="vehroute_flow_4_phase1_N_uturn.1 tripinfo_flow_4_phase1_N_uturn.1" vType="moto" speedFactor="0.94" vaporized=""/>
    <tripinfo id="flow_5_phase1_S_straight.4" depart="53.00" departLane="S_in_0" departPos="8.08" departSpeed="6.48" departDelay="0.08" arrival="103.00" arrivalLane="N_out_0" arrivalPos="189.60" arrivalSpeed="12.92" duration="50.00" routeLength="391.92" waitingTime="2.00" waitingCount="1" stopTime="0.00" timeLoss="20.25" rerouteNo="0" devices="vehroute_flow_5_phase1_S_straight.4 tripinfo_flow_5_phase1_S_straight.4" vType="container" speedFactor="0.97" vaporized=""/>
    <tripinfo id="flow_10_phase1_E_left.2" depart="67.00" departLane="S_in_1" departPos="74.60" departSpeed="12.62" departDelay="0.00" arrival="103.00" arrivalLane="E_out_0" arrivalPos="189.60" arrivalSpeed="13.99" duration="36.00" routeLength="313.63" waitingTime="0.00" waitingCount="0" stopTime="0.00" timeLoss="13.53" rerouteNo="0" devices="vehroute_flow_10_phase1_E_left.2 tripinfo_flow_10_phase1_E_left.2" vType="moto" speedFactor="1.07" vaporized=""/>
    <tripinfo id="flow_13_phase1_W_straight.4" depart="54.00" departLane="S_in_0" departPos="160.30" departSpeed="3.15" departDelay="0.46" arrival="105.00" arrivalLane="S_out_0" arrivalPos="189.60" arrivalSpeed="11.72" duration="51.00" routeLength="223.57" waitingTime="14.00" waitingCount="4" stopTime="0.00" timeLoss="31.66" rerouteNo="0" devices="vehroute_flow_13_phase1_W_straight.4 tripinfo_flow_13_phase1_W_straight.4" vType="bus" speedFactor="0.87" vaporized=""/>
    <tripinfo id="flow_5_phase1_S_straight.5" depart="67.00" departLane="S_in_1" departPos="2.21" departSpeed="9.40" departDelay="0.85" arrival="105.00" arrivalLane="N_out_0" arrivalPos="189.60" arrivalSpeed="13.41" duration="38.00" routeLength="397.79" waitingTime="0.00" waitingCount="0" stopTime="0.00" timeLoss="10.00" rerouteNo="0" devices="vehroute_flow_5_phase1_S_straight.5 tripinfo_flow_5_phase1_S_straight.5" vType="moto" speedFactor="1.03" vaporized=""/>
    <tripinfo id="flow_16_phase1_W_uturn.1" depart="67.00" departLane="S_in_1" departPos="137.11" departSpeed="2.21" departDelay="0.80" arrival="106.00" arrivalLane="S_out_1" arrivalPos="189.60" arrivalSpeed="14.37" duration="39.00" routeLength="246.76" waitingTime="0.00" waitingCount="0" stopTime="0.00" timeLoss="20.66" rerouteNo="0" devices="vehroute_flow_16_phase1_W_uturn.1 tripinfo_flow_16_phase1_W_uturn.1" vType="moto" speedFactor="1.04" vaporized=""/>
    <tripinfo id="flow_5_phase1_S_straight.6" depart="80.00" departLane="S_in_0" departPos="107.80" departSpeed="3.37" departDelay="0.62" arrival="107.00" arrivalLane="N_out_0" arrivalPos="189.60" arrivalSpeed="14.16" duration="27.00" routeLength="292.20" waitingTime="0.00" waitingCount="0" stopTime="0.00" timeLoss="7.08" rerouteNo="0" devices="vehroute_flow_5_phase1_S_straight.6 tripinfo_flow_5_phase1_S_straight.6" vType="moto" speedFactor="1.10" vaporized=""/>
    <tripinfo id="flow_13_phase1_W_straight.5" depart="67.00" departLane="S_in_1" departPos="63.10" departSpeed="7.73" departDelay="0.08" arrival="108.00" arrivalLane="S_out_1" arrivalPos="189.60" arrivalSpeed="15.22" duration="41.00" routeLength="320.77" waitingTime="0.00" waitingCount="0" stopTime="0.00" timeLoss="20.12" rerouteNo="0" devices="vehroute_flow_13_phase1_W_straight.5 tripinfo_flow_13_phase1_W_straight.5" vType="moto" speedFactor="1.14" vaporized=""/>
    <tripinfo id="flow_6_phase1_S_left.2" depart="67.00" departLane="S_in_0" departPos="78.09" departSpeed="11.28" departDelay="0.10" arrival="109.00" arrivalLane="W_out_1" arrivalPos="189.60" arrivalSpeed="11.67" duration="42.00" routeLength="320.46" waitingTime="0.00" waitingCount="0" stopTime="0.00" timeLoss="15.38" rerouteNo="0" devices="vehroute_flow_6_phase1_S_left.2 tripinfo_flow_6_phase1_S_left.2" vType="truck" speedFactor="0.89" vaporized=""/>
    <tripinfo id="flow_1_phase1_N_straight.5" depart="68.00" departLane="S_in_1" departPos="42.85" departSpeed="4.60" departDelay="0.42" arrival="114.00" arrivalLane="S_out_1" arrivalPos="189.60" arrivalSpeed="11.52" duration="46.00" routeLength="341.02" waitingTime="0.00" waitingCount="0" stopTime="0.00" timeLoss="17.61" rerouteNo="0" devices="vehroute_flow_1_phase1_N_straight.5 tripinfo_flow_1_phase1_N_straight.5" vType="moto" speedFactor="0.90" vaporized=""/>
    <tripinfo id="flow_7_phase1_S_right.2" depart="65.00" departLane="W_in_1" departPos="111.69" departSpeed="6.16" departDelay="0.01" arrival="118.00" arrivalLane="E_out_0" arrivalPos="189.60" arrivalSpeed="13.19" duration="53.00" routeLength="288.31" waitingTime="23.00" waitingCount="1" stopTime="0.00" timeLoss="32.49" rerouteNo="0" devices="vehroute_flow_7_phase1_S_right.2 tripinfo_flow_7_phase1_S_right.2" vType="moto" speedFactor="1.03" vaporized=""/>
    <tripinfo id="flow_9_phase1_E_straight.5" depart="65.00" departLane="E_in_1" departPos="129.09" departSpeed="5.26" departDelay="0.62" arrival="118.00" arrivalLane="W_out_1" arrivalPos="189.60" arrivalSpeed="13.18" duration="53.00" routeLength="270.91" waitingTime="26.00" waitingCount="1" stopTime="0.00" timeLoss="33.42" rerouteNo="0" devices="vehroute_flow_9_phase1_E_straight.5 tripinfo_flow_9_phase1_E_straight.5" vType="moto" speedFactor="1.00" vaporized=""/>
    <tripinfo id="flow_11_phase1_E_right.2" depart="65.00" departLane="E_in_1" departPos="19.51" departSpeed="9.11" departDelay="0.02" arrival="121.00" arrivalLane="N_out_0" arrivalPos="189.60" arrivalSpeed="15.60" duration="56.00" routeLength="368.72" waitingTime="22.00" waitingCount="1" stopTime="0.00" timeLoss="32.01" rerouteNo="0" devices="vehroute_flow_11_phase1_E_right.2 tripinfo_flow_11_phase1_E_right.2" vType="moto" speedFactor="1.14" vaporized=""/>
    <tripinfo id="flow_12_phase1_E_uturn.1" depart="66.00" departLane="E_in_0" departPos="91.52" departSpeed="11.74" departDelay="0.19" arrival="121.00" arrivalLane="E_out_1" arrivalPos="189.60" arrivalSpeed="13.05" duration="55.00" routeLength="292.35" waitingTime="25.00" waitingCount="1" stopTime="0.00" timeLoss="30.99" rerouteNo="0" devices="vehroute_flow_12_phase1_E_uturn.1 tripinfo_flow_12_phase1_E_uturn.1" vType="moto" speedFactor="0.95" vaporized=""/>
    <tripinfo id="flow_9_phase1_E_straight.4" depart="52.00" departLane="E_in_0" departPos="167.23" departSpeed="1.87" departDelay="0.49" arrival="123.00" arrivalLane="W_out_0" arrivalPos="189.60" arrivalSpeed="12.71" duration="71.00" routeLength="232.77" waitingTime="40.00" waitingCount="1" stopTime="0.00" timeLoss="53.04" rerouteNo="0" devices="vehroute_flow_9_phase1_E_straight.4 tripinfo_flow_9_phase1_E_straight.4" vType="bus" speedFactor="0.95" vaporized=""/>
    <tripinfo id="flow_14_phase1_W_left.2" depart="69.00" departLane="E_in_0" departPos="161.31" departSpeed="3.13" departDelay="0.06" arrival="123.00" arrivalLane="W_out_1" arrivalPos="189.60" arrivalSpeed="11.54" duration="54.00" routeLength="238.69" waitingTime="25.00" waitingCount="2" stopTime="0.00" timeLoss="34.51" rerouteNo="0" devices="vehroute_flow_14_phase1_W_left.2 tripinfo_flow_14_phase1_W_left.2" vType="car" speedFactor="0.90" vaporized=""/>
    <tripinfo id="flow_9_phase1_E_straight.6" depart="78.00" departLane="E_in_1" departPos="45.20" departSpeed="2.70" departDelay="0.74" arrival="125.00" arrivalLane="W_out_1" arrivalPos="189.60" arrivalSpeed="12.98" duration="47.00" routeLength="354.80" waitingTime="9.00" waitingCount="1" stopTime="0.00" timeLoss="21.24" rerouteNo="0" devices="vehroute_flow_9_phase1_E_straight.6 tripinfo_flow_9_phase1_E_straight.6" vType="moto" speedFactor="1.02" vaporized=""/>
    <tripinfo id="flow_9_phase1_E_straight.7" depart="91.00" departLane="E_in_0" departPos="1.39" departSpeed="6.39" departDelay="0.86" arrival="126.00" arrivalLane="W_out_1" arrivalPos="189.60" arrivalSpeed="13.94" duration="35.00" routeLength="398.61" waitingTime="0.00" waitingCount="0" stopTime="0.00" timeLoss="6.08" rerouteNo="0" devices="vehroute_flow_9_phase1_E_straight.7 tripinfo_flow_9_phase1_E_straight.7" vType="moto" speedFactor="1.01" vaporized=""/>
    <tripinfo id="flow_2_phase1_N_left.2" depart="66.00" departLane="W_in_0" departPos="155.68" departSpeed="9.79" departDelay="0.64" arrival="127.00" arrivalLane="W_out_1" arrivalPos="189.60" arrivalSpeed="15.19" duration="61.00" routeLength="228.19" waitingTime="37.00" waitingCount="2" stopTime="0.00" timeLoss="45.20" rerouteNo="0" devices="vehroute_flow_2_phase1_N_left.2 tripinfo_flow_2_phase1_N_left.2" vType="emergency" speedFactor="1.10" vaporized=""/>
    <tripinfo id="flow_11_phase1_E_right.3" depart="98.00" departLane="E_in_0" departPos="171.56" departSpeed="1.14" departDelay="0.53" arrival="128.00" arrivalLane="N_out_0" arrivalPos="189.60" arrivalSpeed="11.26" duration="30.00" routeLength="216.67" waitingTime="1.00" waitingCount="1" stopTime="0.00" timeLoss="10.20" rerouteNo="0" devices="vehroute_flow_11_phase1_E_right.3 tripinfo_flow_11_phase1_E_right.3" vType="moto" speedFactor="0.83" vaporized=""/>
    <tripinfo id="flow_1_phase1_N_straight.6" depart="82.00" departLane="S_in_1" departPos="126.29" departSpeed="0.47" departDelay="0.90" arrival="131.00" arrivalLane="S_out_1" arrivalPos="189.60" arrivalSpeed="13.30" duration="49.00" routeLength="257.58" waitingTime="14.00" waitingCount="1" stopTime="0.00" timeLoss="28.69" rerouteNo="0" devices="vehroute_flow_1_phase1_N_straight.6 tripinfo_flow_1_phase1_N_straight.6" vType="car" speedFactor="0.98" vaporized=""/>
    <tripinfo id="flow_3_phase1_N_right.3" depart="103.00" departLane="N_in_1" departPos="109.12" departSpeed="2.83" departDelay="0.45" arrival="131.00" arrivalLane="W_out_0" arrivalPos="189.60" arrivalSpeed="12.60" duration="28.00" routeLength="279.11" waitingTime="0.00" waitingCount="0" stopTime="0.00" timeLoss="5.56" rerouteNo="0" devices="vehroute_flow_3_phase1_N_right.3 tripinfo_flow_3_phase1_N_right.3" vType="moto" speedFactor="0.96" vaporized=""/>
    <tripinfo id="flow_13_phase1_W_straight.6" depart="81.00" departLane="S_in_0" departPos="16.04" departSpeed="5.47" departDelay="0.70" arrival="135.00" arrivalLane="S_out_1" arrivalPos="189.60" arrivalSpeed="12.61" duration="54.00" routeLength="367.83" waitingTime="12.00" waitingCount="1" stopTime="0.00" timeLoss="24.56" rerouteNo="0" devices="vehroute_flow_13_phase1_W_straight.6 tripinfo_flow_13_phase1_W_straight.6" vType="car" speedFactor="0.98" vaporized=""/>
    <tripinfo id="flow_6_phase1_S_left.3" depart="101.00" departLane="S_in_0" departPos="157.03" departSpeed="11.61" departDelay="0.64" arrival="136.00" arrivalLane="W_out_1" arrivalPos="189.60" arrivalSpeed="13.99" duration="35.00" routeLength="241.52" waitingTime="11.00" waitingCount="2" stopTime="0.00" timeLoss="18.52" rerouteNo="0" devices="vehroute_flow_6_phase1_S_left.3 tripinfo_flow_6_phase1_S_left.3" vType="car" speedFactor="1.10" vaporized=""/>