<?xml version="1.0" encoding="UTF-8"?>

<!-- generated on 2025-12-08 21:23:59 by Eclipse SUMO sumo Version 1.18.0
<configuration xmlns:xsi="http://www.w3.org/2001/XMLSchema-instance" xsi:noNamespaceSchemaLocation="http://sumo.dlr.de/xsd/sumoConfiguration.xsd">

    <input>
        <net-file value="/workspace/nets/60p2k/net.net.xml"/>
        <route-files value="/workspace/nets/60p2k/route_temp_244_130720908769792_63793894.rou.xml"/>
    </input>

    <output>
        <summary-output value="results/summary_ep_7.xml"/>
        <tripinfo-output value="results/tripinfo_ep_7.xml"/>
        <vehroute-output value="results/vehroute_ep_7.xml"/>
    </output>

    <time>
        <begin value="0"/>
    </time>

    <report>
        <verbose value="true"/>
        <no-step-log value="true"/>
    </report>

    <traci_server>
        <remote-port value="56831"/>
    </traci_server>

    <gui_only>
        <gui-settings-file value="/workspace/nets/60p2k/gui-settings.xml"/>
        <quit-on-end value="true"/>
    </gui_only>

</configuration>
-->

<tripinfos xmlns:xsi="http://www.w3.org/2001/XMLSchema-instance" xsi:noNamespaceSchemaLocation="http://sumo.dlr.de/xsd/tripinfo_file.xsd">
    <tripinfo id="flow_5_phase1_S_straight.0" depart="0.00" departLane="S_in_1" departPos="107.37" departSpeed="7.21" departDelay="0.00" arrival="24.00" arrivalLane="N_out_1" arrivalPos="189.60" arrivalSpeed="15.54" duration="24.00" routeLength="292.63" waitingTime="0.00" waitingCount="0" stopTime="0.00" timeLoss="5.45" rerouteNo="0" devices="vehroute_flow_5_phase1_S_straight.0 tripinfo_flow_5_phase1_S_straight.0" vType="moto" speedFactor="1.15" vaporized=""/>
    <tripinfo id="flow_8_phase1_S_uturn.0" depart="0.00" departLane="S_in_0" departPos="120.11" departSpeed="4.48" departDelay="0.00" arrival="24.00" arrivalLane="S_out_1" arrivalPos="189.60" arrivalSpeed="13.35" duration="24.00" routeLength="263.76" waitingTime="0.00" waitingCount="0" stopTime="0.00" timeLoss="4.87" rerouteNo="0" devices="vehroute_flow_8_phase1_S_uturn.0 tripinfo_flow_8_phase1_S_uturn.0" vType="moto" speedFactor="1.05" vaporized=""/>
    <tripinfo id="flow_16_phase1_W_uturn.0" depart="0.00" departLane="S_in_1" departPos="126.68" departSpeed="1.28" departDelay="0.00" arrival="25.00" arrivalLane="E_out_0" arrivalPos="189.60" arrivalSpeed="13.56" duration="25.00" routeLength="261.55" waitingTime="0.00" waitingCount="0" stopTime="0.00" timeLoss="6.03" rerouteNo="0" devices="vehroute_flow_16_phase1_W_uturn.0 tripinfo_flow_16_phase1_W_uturn.0" vType="moto" speedFactor="1.04" vaporized=""/>
    <tripinfo id="flow_11_phase1_E_right.0" depart="0.00" departLane="N_in_1" departPos="144.95" departSpeed="4.02" departDelay="0.00" arrival="26.00" arrivalLane="W_out_0" arrivalPos="189.60" arrivalSpeed="12.94" duration="26.00" routeLength="243.28" waitingTime="0.00" waitingCount="0" stopTime="0.00" timeLoss="6.11" rerouteNo="0" devices="vehroute_flow_11_phase1_E_right.0 tripinfo_flow_11_phase1_E_right.0" vType="bus" speedFactor="0.96" vaporized=""/>
    <tripinfo id="flow_3_phase1_N_right.0" depart="0.00" departLane="N_in_0" departPos="103.38" departSpeed="3.75" departDelay="0.00" arrival="28.00" arrivalLane="W_out_0" arrivalPos="189.60" arrivalSpeed="14.82" duration="28.00" routeLength="284.85" waitingTime="0.00" waitingCount="0" stopTime="0.00" timeLoss="8.23" rerouteNo="0" devices="vehroute_flow_3_phase1_N_right.0 tripinfo_flow_3_phase1_N_right.0" vType="car" speedFactor="1.09" vaporized=""/>
    <tripinfo id="flow_4_phase1_N_uturn.0" depart="0.00" departLane="N_in_1" departPos="127.60" departSpeed="0.08" departDelay="0.00" arrival="31.00" arrivalLane="N_out_1" arrivalPos="189.60" arrivalSpeed="11.53" duration="31.00" routeLength="256.27" waitingTime="2.00" waitingCount="1" stopTime="0.00" timeLoss="9.85" rerouteNo="0" devices="vehroute_flow_4_phase1_N_uturn.0 tripinfo_flow_4_phase1_N_uturn.0" vType="car" speedFactor="0.92" vaporized=""/>
    <tripinfo id="flow_15_phase1_W_right.0" depart="0.00" departLane="S_in_1" departPos="45.77" departSpeed="6.73" departDelay="0.00" arrival="34.00" arrivalLane="E_out_0" arrivalPos="189.60" arrivalSpeed="10.82" duration="34.00" routeLength="342.46" waitingTime="0.00" waitingCount="0" stopTime="0.00" timeLoss="3.72" rerouteNo="0" devices="vehroute_flow_15_phase1_W_right.0 tripinfo_flow_15_phase1_W_right.0" vType="moto" speedFactor="0.85" vaporized=""/>
    <tripinfo id="flow_14_phase1_W_left.0" depart="0.00" departLane="W_in_1" departPos="42.31" departSpeed="3.71" departDelay="0.00" arrival="36.00" arrivalLane="N_out_1" arrivalPos="189.60" arrivalSpeed="13.95" duration="36.00" routeLength="356.24" waitingTime="2.00" waitingCount="1" stopTime="0.00" timeLoss="9.80" rerouteNo="0" devices="vehroute_flow_14_phase1_W_left.0 tripinfo_flow_14_phase1_W_left.0" vType="moto" speedFactor="1.01" vaporized=""/>
    <tripinfo id="flow_12_phase1_E_uturn.0" depart="0.00" departLane="W_in_0" departPos="5.65" departSpeed="13.76" departDelay="0.00" arrival="38.00" arrivalLane="E_out_1" arrivalPos="189.60" arrivalSpeed="14.35" duration="38.00" routeLength="394.35" waitingTime="1.00" waitingCount="1" stopTime="0.00" timeLoss="9.68" rerouteNo="0" devices="vehroute_flow_12_phase1_E_uturn.0 tripinfo_flow_12_phase1_E_uturn.0" vType="moto" speedFactor="1.03" vaporized=""/>
    <tripinfo id="flow_9_phase1_E_straight.1" depart="13.00" departLane="E_in_0" departPos="131.13" departSpeed="9.54" departDelay="0.12" arrival="39.00" arrivalLane="N_out_1" arrivalPos="189.60" arrivalSpeed="15.70" duration="26.00" routeLength="257.10" waitingTime="0.00" waitingCount="0" stopTime="0.00" timeLoss="8.67" rerouteNo="0" devices="vehroute_flow_9_phase1_E_straight.1 tripinfo_flow_9_phase1_E_straight.1" vType="moto" speedFactor="1.16" vaporized=""/>
    <tripinfo id="flow_13_phase1_W_straight.1" depart="14.00" departLane="W_in_1" departPos="121.65" departSpeed="2.86" departDelay="0.62" arrival="39.00" arrivalLane="E_out_1" arrivalPos="189.60" arrivalSpeed="14.51" duration="25.00" routeLength="278.35" waitingTime="0.00" waitingCount="0" stopTime="0.00" timeLoss="6.68" rerouteNo="0" devices="vehroute_flow_13_phase1_W_straight.1 tripinfo_flow_13_phase1_W_straight.1" vType="car" speedFactor="1.12" vaporized=""/>
    <tripinfo id="flow_9_phase1_E_straight.0" depart="0.00" departLane="E_in_0" departPos="168.29" departSpeed="9.83" departDelay="0.00" arrival="40.00" arrivalLane="N_out_0" arrivalPos="189.60" arrivalSpeed="11.77" duration="40.00" routeLength="219.94" waitingTime="11.00" waitingCount="1" stopTime="0.00" timeLoss="21.06" rerouteNo="0" devices="vehroute_flow_9_phase1_E_straight.0 tripinfo_flow_9_phase1_E_straight.0" vType="truck" speedFactor="0.90" vaporized=""/>
    <tripinfo id="flow_13_phase1_W_straight.0" depart="0.00" departLane="W_in_0" departPos="77.99" departSpeed="3.79" departDelay="0.00" arrival="47.00" arrivalLane="E_out_0" arrivalPos="189.60" arrivalSpeed="11.09" duration="47.00" routeLength="322.01" waitingTime="1.00" waitingCount="1" stopTime="0.00" timeLoss="18.07" rerouteNo="0" devices="vehroute_flow_13_phase1_W_straight.0 tripinfo_flow_13_phase1_W_straight.0" vType="container" speedFactor="0.82" vaporized=""/>
    <tripinfo id="flow_6_phase1_S_left.0" depart="0.00" departLane="E_in_1" departPos="166.01" departSpeed="0.74" departDelay="0.00" arrival="48.00" arrivalLane="S_out_1" arrivalPos="189.60" arrivalSpeed="12.05" duration="48.00" routeLength="232.54" waitingTime="16.00" waitingCount="2" stopTime="0.00" timeLoss="27.52" rerouteNo="0" devices="vehroute_flow_6_phase1_S_left.0 tripinfo_flow_6_phase1_S_left.0" vType="moto" speedFactor="0.88" vaporized=""/>
    <tripinfo id="flow_10_phase1_E_left.0" depart="0.00" departLane="E_in_0" departPos="44.88" departSpeed="7.69" departDelay="0.00" arrival="51.00" arrivalLane="S_out_1" arrivalPos="189.60" arrivalSpeed="13.99" duration="51.00" routeLength="353.67" waitingTime="9.00" waitingCount="2" stopTime="0.00" timeLoss="24.96" rerouteNo="0" devices="vehroute_flow_10_phase1_E_left.0 tripinfo_flow_10_phase1_E_left.0" vType="truck" speedFactor="1.02" vaporized=""/>
    <tripinfo id="flow_5_phase1_S_straight.1" depart="14.00" departLane="S_in_1" departPos="31.93" departSpeed="9.28" departDelay="0.77" arrival="52.00" arrivalLane="N_out_1" arrivalPos="189.60" arrivalSpeed="14.84" duration="38.00" routeLength="368.07" waitingTime="3.00" waitingCount="1" stopTime="0.00" timeLoss="14.20" rerouteNo="0" devices="vehroute_flow_5_phase1_S_straight.1 tripinfo_flow_5_phase1_S_straight.1" vType="moto" speedFactor="1.19" vaporized=""/>
    <tripinfo id="flow_1_phase1_N_straight.0" depart="0.00" departLane="N_in_0" departPos="8.62" departSpeed="8.51" departDelay="0.00" arrival="56.00" arrivalLane="S_out_0" arrivalPos="189.60" arrivalSpeed="11.49" duration="56.00" routeLength="391.38" waitingTime="11.00" waitingCount="1" stopTime="0.00" timeLoss="22.40" rerouteNo="0" devices="vehroute_flow_1_phase1_N_straight.0 tripinfo_flow_1_phase1_N_straight.0" vType="bus" speedFactor="0.86" vaporized=""/>
    <tripinfo id="flow_7_phase1_S_right.0" depart="0.00" departLane="S_in_0" departPos="8.76" departSpeed="8.07" departDelay="0.00" arrival="58.00" arrivalLane="E_out_0" arrivalPos="189.60" arrivalSpeed="11.67" duration="58.00" routeLength="379.47" waitingTime="12.00" waitingCount="1" stopTime="0.00" timeLoss="24.59" rerouteNo="0" devices="vehroute_flow_7_phase1_S_right.0 tripinfo_flow_7_phase1_S_right.0" vType="container" speedFactor="0.85" vaporized=""/>
    <tripinfo id="flow_5_phase1_S_straight.2" depart="27.00" departLane="S_in_1" departPos="12.70" departSpeed="12.41" departDelay="0.54" arrival="58.00" arrivalLane="N_out_1" arrivalPos="189.60" arrivalSpeed="12.32" duration="31.00" routeLength="387.30" waitingTime="0.00" waitingCount="0" stopTime="0.00" timeLoss="1.53" rerouteNo="0" devices="vehroute_flow_5_phase1_S_straight.2 tripinfo_flow_5_phase1_S_straight.2" vType="moto" speedFactor="0.96" vaporized=""/>
    <tripinfo id="flow_3_phase1_N_right.1" depart="35.00" departLane="N_in_0" departPos="166.00" departSpeed="3.71" departDelay="0.82" arrival="58.00" arrivalLane="W_out_0" arrivalPos="189.60" arrivalSpeed="11.68" duration="23.00" routeLength="222.23" waitingTime="0.00" waitingCount="0" stopTime="0.00" timeLoss="3.58" rerouteNo="0" devices="vehroute_flow_3_phase1_N_right.1 tripinfo_flow_3_phase1_N_right.1" vType="moto" speedFactor="0.88" vaporized=""/>
    <tripinfo id="flow_9_phase1_E_straight.2" depart="26.00" departLane="E_in_1" departPos="52.87" departSpeed="0.38" departDelay="0.25" arrival="61.00" arrivalLane="N_out_0" arrivalPos="189.60" arrivalSpeed="13.55" duration="35.00" routeLength="335.36" waitingTime="2.00" waitingCount="1" stopTime="0.00" timeLoss="9.83" rerouteNo="0" devices="vehroute_flow_9_phase1_E_straight.2 tripinfo_flow_9_phase1_E_straight.2" vType="moto" speedFactor="0.99" vaporized=""/>
    <tripinfo id="flow_2_phase1_N_left.0" depart="0.00" departLane="N_in_1" departPos="8.27" departSpeed="8.33" departDelay="0.00" arrival="62.00" arrivalLane="E_out_1" arrivalPos="189.60" arrivalSpeed="13.54" duration="62.00" routeLength="390.28" waitingTime="23.00" waitingCount="2" stopTime="0.00" timeLoss="32.90" rerouteNo="0" devices="vehroute_flow_2_phase1_N_left.0 tripinfo_flow_2_phase1_N_left.0" vType="moto" speedFactor="1.02" vaporized=""/>
    <tripinfo id="flow_13_phase1_W_straight.3" depart="41.00" departLane="W_in_0" departPos="125.48" departSpeed="6.79" departDelay="0.85" arrival="63.00" arrivalLane="E_out_0" arrivalPos="189.60" arrivalSpeed="14.03" duration="22.00" routeLength="274.52" waitingTime="0.00" waitingCount="0" stopTime="0.00" timeLoss="2.60" rerouteNo="0" devices="vehroute_flow_13_phase1_W_straight.3 tripinfo_flow_13_phase1_W_straight.3" vType="car" speedFactor="1.05" vaporized=""/>
    <tripinfo id="flow_13_phase1_W_straight.2" depart="27.00" departLane="W_in_1" departPos="59.51" departSpeed="13.32" departDelay="0.23" arrival="68.00" arrivalLane="E_out_0" arrivalPos="189.60" arrivalSpeed="13.00" duration="41.00" routeLength="340.49" waitingTime="4.00" waitingCount="1" stopTime="0.00" timeLoss="15.60" rerouteNo="0" devices="vehroute_flow_13_phase1_W_straight.2 tripinfo_flow_13_phase1_W_straight.2" vType="bus" speedFactor="0.97" vaporized=""/>
    <tripinfo id="flow_9_phase1_E_straight.3" depart="39.00" departLane="E_in_0" departPos="86.42" departSpeed="8.41" departDelay="0.37" arrival="69.00" arrivalLane="N_out_0" arrivalPos="189.60" arrivalSpeed="11.43" duration="30.00" routeLength="301.81" waitingTime="0.00" waitingCount="0" stopTime="0.00" timeLoss="3.90" rerouteNo="0" devices="vehroute_flow_9_phase1_E_straight.3 tripinfo_flow_9_phase1_E_straight.3" vType="bus" speedFactor="0.85" vaporized=""/>
    <tripinfo id="flow_1_phase1_N_straight.1" depart="14.00" departLane="N_in_1" departPos="58.36" departSpeed="11.64" departDelay="0.48" arrival="71.00" arrivalLane="S_out_0" arrivalPos="189.60" arrivalSpeed="12.04" duration="57.00" routeLength="341.64" waitingTime="17.00" waitingCount="3" stopTime="0.00" timeLoss="28.20" rerouteNo="0" devices="vehroute_flow_1_phase1_N_straight.1 tripinfo_flow_1_phase1_N_straight.1" vType="moto" speedFactor="0.87" vaporized=""/>
    <tripinfo id="flow_11_phase1_E_right.1" depart="33.00" departLane="N_in_1" departPos="128.68" departSpeed="3.06" departDelay="0.51" arrival="74.00" arrivalLane="W_out_0" arrivalPos="189.60" arrivalSpeed="13.80" duration="41.00" routeLength="259.55" waitingTime="15.00" waitingCount="1" stopTime="0.00" timeLoss="22.41" rerouteNo="0" devices="vehroute_flow_11_phase1_E_right.1 tripinfo_flow_11_phase1_E_right.1" vType="moto" speedFactor="1.04" vaporized=""/>
    <tripinfo id="flow_15_phase1_W_right.1" depart="33.00" departLane="S_in_0" departPos="73.90" departSpeed="9.22" departDelay="0.16" arrival="74.00" arrivalLane="E_out_0" arrivalPos="189.60" arrivalSpeed="14.17" duration="41.00" routeLength="314.33" waitingTime="12.00" waitingCount="1" stopTime="0.00" timeLoss="19.15" rerouteNo="0" devices="vehroute_flow_15_phase1_W_right.1 tripinfo_flow_15_phase1_W_right.1" vType="moto" speedFactor="1.08" vaporized=""/>
    <tripinfo id="flow_10_phase1_E_left.1" depart="34.00" departLane="E_in_1" departPos="185.21" departSpeed="3.70" departDelay="0.50" arrival="77.00" arrivalLane="S_out_0" arrivalPos="189.60" arrivalSpeed="9.94" duration="43.00" routeLength="213.34" waitingTime="10.00" waitingCount="2" stopTime="0.00" timeLoss="22.05" rerouteNo="0" devices="vehroute_flow_10_phase1_E_left.1 tripinfo_flow_10_phase1_E_left.1" vType="truck" speedFactor="0.77" vaporized=""/>
    <tripinfo id="flow_1_phase1_N_straight.3" depart="41.00" departLane="N_in_0" departPos="132.62" departSpeed="5.49" departDelay="0.45" arrival="79.00" arrivalLane="S_out_0" arrivalPos="189.60" arrivalSpeed="14.83" duration="38.00" routeLength="267.38" waitingTime="9.00" waitingCount="1" stopTime="0.00" timeLoss="20.96" rerouteNo="0" devices="vehroute_flow_1_phase1_N_straight.3 tripinfo_flow_1_phase1_N_straight.3" vType="moto" speedFactor="1.20" vaporized=""/>
    <tripinfo id="flow_1_phase1_N_straight.2" depart="28.00" departLane="N_in_1" departPos="107.53" departSpeed="1.11" departDelay="0.97" arrival="81.00" arrivalLane="S_out_0" arrivalPos="189.60" arrivalSpeed="12.05" duration="53.00" routeLength="292.47" waitingTime="16.00" waitingCount="1" stopTime="0.00" timeLoss="30.17" rerouteNo="0" devices="vehroute_flow_1_phase1_N_straight.2 tripinfo_flow_1_phase1_N_straight.2" vType="moto" speedFactor="0.93" vaporized=""/>
    <tripinfo id="flow_14_phase1_W_left.1" depart="35.00" departLane="W_in_0" departPos="93.41" departSpeed="11.76" departDelay="0.53" arrival="81.00" arrivalLane="N_out_1" arrivalPos="189.60" arrivalSpeed="12.48" duration="46.00" routeLength="305.14" waitingTime="0.00" waitingCount="0" stopTime="0.00" timeLoss="21.16" rerouteNo="0" devices="vehroute_flow_14_phase1_W_left.1 tripinfo_flow_14_phase1_W_left.1" vType="container" speedFactor="0.91" vaporized=""/>
    <tripinfo id="flow_5_phase1_S_straight.3" depart="40.00" departLane="S_in_0" departPos="56.18" departSpeed="8.58" departDelay="0.31" arrival="81.00" arrivalLane="N_out_0" arrivalPos="189.60" arrivalSpeed="14.55" duration="41.00" routeLength="343.82" waitingTime="4.00" waitingCount="2" stopTime="0.00" timeLoss="17.55" rerouteNo="0" devices="vehroute_flow_5_phase1_S_straight.3 tripinfo_flow_5_phase1_S_straight.3" vType="moto" speedFactor="1.08" vaporized=""/>
    <tripinfo id="flow_5_phase1_S_straight.4" depart="53.00" departLane="S_in_0" departPos="26.76" departSpeed="9.62" departDelay="0.08" arrival="84.00" arrivalLane="N_out_1" arrivalPos="189.60" arrivalSpeed="12.92" duration="31.00" routeLength="373.24" waitingTime="0.00" waitingCount="0" stopTime="0.00" timeLoss="3.04" rerouteNo="0" devices="vehroute_flow_5_phase1_S_straight.4 tripinfo_flow_5_phase1_S_straight.4" vType="container" speedFactor="0.97" vaporized=""/>
    <tripinfo id="flow_1_phase1_N_straight.4" depart="55.00" departLane="N_in_0" departPos="128.04" departSpeed="4.99" departDelay="0.94" arrival="84.00" arrivalLane="S_out_0" arrivalPos="189.60" arrivalSpeed="12.55" duration="29.00" routeLength="271.96" waitingTime="0.00" waitingCount="0" stopTime="0.00" timeLoss="6.84" rerouteNo="0" devices="vehroute_flow_1_phase1_N_straight.4 tripinfo_flow_1_phase1_N_straight.4" vType="truck" speedFactor="0.92" vaporized=""/>
    <tripinfo id="flow_7_phase1_S_right.1" depart="33.00" departLane="S_in_1" departPos="66.71" departSpeed="7.87" departDelay="0.51" arrival="85.00" arrivalLane="E_out_0" arrivalPos="189.60" arrivalSpeed="10.73" duration="52.00" routeLength="321.52" waitingTime="8.00" waitingCount="1" stopTime="0.00" timeLoss="20.86" rerouteNo="0" devices="vehroute_flow_7_phase1_S_right.1 tripinfo_flow_7_phase1_S_right.1" vType="container" speedFactor="0.78" vaporized=""/>
    <tripinfo id="flow_2_phase1_N_left.1" depart="33.00" departLane="N_in_0" departPos="8.88" departSpeed="2.82" departDelay="0.32" arrival="87.00" arrivalLane="E_out_1" arrivalPos="189.60" arrivalSpeed="15.24" duration="54.00" routeLength="389.67" waitingTime="12.00" waitingCount="2" stopTime="0.00" timeLoss="27.99" rerouteNo="0" devices="vehroute_flow_2_phase1_N_left.1 tripinfo_flow_2_phase1_N_left.1" vType="moto" speedFactor="1.12" vaporized=""/>
    <tripinfo id="flow_12_phase1_E_uturn.1" depart="66.00" departLane="W_in_0" departPos="104.14" departSpeed="10.86" departDelay="0.19" arrival="91.00" arrivalLane="E_out_1" arrivalPos="189.60" arrivalSpeed="12.07" duration="25.00" routeLength="295.86" waitingTime="0.00" waitingCount="0" stopTime="0.00" timeLoss="1.83" rerouteNo="0" devices="vehroute_flow_12_phase1_E_uturn.1 tripinfo_flow_12_phase1_E_uturn.1" vType="moto" speedFactor="0.95" vaporized=""/>
    <tripinfo id="flow_9_phase1_E_straight.4" depart="52.00" departLane="E_in_1" departPos="135.04" departSpeed="3.72" departDelay="0.49" arrival="92.00" arrivalLane="N_out_0" arrivalPos="189.60" arrivalSpeed="12.97" duration="40.00" routeLength="253.19" waitingTime="8.00" waitingCount="1" stopTime="0.00" timeLoss="19.65" rerouteNo="0" devices="vehroute_flow_9_phase1_E_straight.4 tripinfo_flow_9_phase1_E_straight.4" vType="bus" speedFactor="0.95" vaporized=""/>
    <tripinfo id="flow_9_phase1_E_straight.5" depart="65.00" departLane="E_in_0" departPos="125.76" departSpeed="4.77" departDelay="0.62" arrival="93.00" arrivalLane="N_out_1" arrivalPos="189.60" arrivalSpeed="12.65" duration="28.00" routeLength="262.47" waitingTime="0.00" waitingCount="0" stopTime="0.00" timeLoss="7.98" rerouteNo="0" devices="vehroute_flow_9_phase1_E_straight.5 tripinfo_flow_9_phase1_E_straight.5" vType="moto" speedFactor="1.00" vaporized=""/>
    <tripinfo id="flow_6_phase1_S_left.1" depart="34.00" departLane="E_in_1" departPos="110.92" departSpeed="11.99" departDelay="0.55" arrival="95.00" arrivalLane="S_out_1" arrivalPos="189.60" arrivalSpeed="13.65" duration="61.00" routeLength="287.63" waitingTime="22.00" waitingCount="4" stopTime="0.00" timeLoss="39.80" rerouteNo="0" devices="vehroute_flow_6_phase1_S_left.1 tripinfo_flow_6_phase1_S_left.1" vType="moto" speedFactor="1.05" vaporized=""/>
    <tripinfo id="flow_13_phase1_W_straight.4" depart="54.00" departLane="W_in_0" departPos="91.01" departSpeed="4.49" departDelay="0.46" arrival="95.00" arrivalLane="E_out_0" arrivalPos="189.60" arrivalSpeed="11.70" duration="41.00" routeLength="308.99" waitingTime="0.00" waitingCount="0" stopTime="0.00" timeLoss="14.55" rerouteNo="0" devices="vehroute_flow_13_phase1_W_straight.4 tripinfo_flow_13_phase1_W_straight.4" vType="bus" speedFactor="0.87" vaporized=""/>
    <tripinfo id="flow_11_phase1_E_right.2" depart="65.00" departLane="N_in_0" departPos="52.57" departSpeed="9.36" departDelay="0.02" arrival="99.00" arrivalLane="W_out_0" arrivalPos="189.60" arrivalSpeed="15.70" duration="34.00" routeLength="335.66" waitingTime="5.00" waitingCount="1" stopTime="0.00" timeLoss="12.45" rerouteNo="0" devices="vehroute_flow_11_phase1_E_right.2 tripinfo_flow_11_phase1_E_right.2" vType="moto" speedFactor="1.14" vaporized=""/>
    <tripinfo id="flow_6_phase1_S_left.2" depart="67.00" departLane="E_in_1" departPos="124.88" departSpeed="0.01" departDelay="0.10" arrival="99.00" arrivalLane="S_out_1" arrivalPos="189.60" arrivalSpeed="12.11" duration="32.00" routeLength="273.67" waitingTime="0.00" waitingCount="0" stopTime="0.00" timeLoss="9.06" rerouteNo="0" devices="vehroute_flow_6_phase1_S_left.2 tripinfo_flow_6_phase1_S_left.2" vType="truck" speedFactor="0.89" vaporized=""/>
    <tripinfo id="flow_3_phase1_N_right.2" depart="69.00" departLane="N_in_1" departPos="39.34" departSpeed="7.11" departDelay="0.63" arrival="101.00" arrivalLane="W_out_0" arrivalPos="189.60" arrivalSpeed="15.00" duration="32.00" routeLength="348.89" waitingTime="0.00" waitingCount="0" stopTime="0.00" timeLoss="8.37" rerouteNo="0" devices="vehroute_flow_3_phase1_N_right.2 tripinfo_flow_3_phase1_N_right.2" vType="moto" speedFactor="1.10" vaporized=""/>
    <tripinfo id="flow_15_phase1_W_right.2" depart="66.00" departLane="S_in_1" departPos="168.21" departSpeed="7.81" departDelay="0.32" arrival="103.00" arrivalLane="E_out_0" arrivalPos="189.60" arrivalSpeed="11.60" duration="37.00" routeLength="220.02" waitingTime="11.00" waitingCount="1" stopTime="0.00" timeLoss="17.98" rerouteNo="0" devices="vehroute_flow_15_phase1_W_right.2 tripinfo_flow_15_phase1_W_right.2" vType="moto" speedFactor="0.89" vaporized=""/>
    <tripinfo id="flow_1_phase1_N_straight.5" depart="68.00" departLane="N_in_1" departPos="177.50" departSpeed="6.11" departDelay="0.42" arrival="103.00" arrivalLane="S_out_0" arrivalPos="189.60" arrivalSpeed="12.48" duration="35.00" routeLength="222.50" waitingTime="10.00" waitingCount="1" stopTime="0.00" timeLoss="16.42" rerouteNo="0" devices="vehroute_flow_1_phase1_N_straight.5 tripinfo_flow_1_phase1_N_straight.5" vType="moto" speedFactor="0.90" vaporized=""/>
    <tripinfo id="flow_16_phase1_W_uturn.1" depart="67.00" departLane="S_in_1" departPos="74.60" departSpeed="11.48" departDelay="0.80" arrival="104.00" arrivalLane="E_out_0" arrivalPos="189.60" arrivalSpeed="13.75" duration="37.00" routeLength="313.63" waitingTime="5.00" waitingCount="1" stopTime="0.00" timeLoss="14.43" rerouteNo="0" devices="vehroute_flow_16_phase1_W_uturn.1 tripinfo_flow_16_phase1_W_uturn.1" vType="moto" speedFactor="1.04" vaporized=""/>
    <tripinfo id="flow_7_phase1_S_right.2" depart="65.00" departLane="S_in_1" departPos="29.12" departSpeed="12.08" departDelay="0.01" arrival="106.00" arrivalLane="E_out_0" arrivalPos="189.60" arrivalSpeed="13.76" duration="41.00" routeLength="359.11" waitingTime="4.00" waitingCount="1" stopTime="0.00" timeLoss="14.78" rerouteNo="0" devices="vehroute_flow_7_phase1_S_right.2 tripinfo_flow_7_phase1_S_right.2" vType="moto" speedFactor="1.03" vaporized=""/>
    <tripinfo id="flow_5_phase1_S_straight.5" depart="67.00" departLane="S_in_1" departPos="89.17" departSpeed="11.39" departDelay="0.85" arrival="107.00" arrivalLane="N_out_1" arrivalPos="189.60" arrivalSpeed="13.84" duration="40.00" routeLength="310.83" waitingTime="7.00" waitingCount="1" stopTime="0.00" timeLoss="18.17" rerouteNo="0" devices="vehroute_flow_5_phase1_S_straight.5 tripinfo_flow_5_phase1_S_straight.5" vType="moto" speedFactor="1.03" vaporized=""/>
    <tripinfo id="flow_8_phase1_S_uturn.1" depart="66.00" departLane="S_in_1" departPos="162.40" departSpeed="1.34" departDelay="0.07" arrival="108.00" arrivalLane="S_out_1" arrivalPos="189.60" arrivalSpeed="12.93" duration="42.00" routeLength="221.47" waitingTime="9.00" waitingCount="2" stopTime="0.00" timeLoss="23.90" rerouteNo="0" devices="vehroute_flow_8_phase1_S_uturn.1 tripinfo_flow_8_phase1_S_uturn.1" vType="truck" speedFactor="0.94" vaporized=""/>
    <tripinfo id="flow_5_phase1_S_straight.6" depart="80.00" departLane="S_in_1" departPos="109.89" departSpeed="2.41" departDelay="0.62" arrival="109.00" arrivalLane="N_out_0" arrivalPos="189.60" arrivalSpeed="14.29" duration="29.00" routeLength="290.11" waitingTime="0.00" waitingCount="0" stopTime="0.00" timeLoss="9.25" rerouteNo="0" devices="vehroute_flow_5_phase1_S_straight.6 tripinfo_flow_5_phase1_S_straight.6" vType="moto" speedFactor="1.10" vaporized=""/>
    <tripinfo id="flow_2_phase1_N_left.2" depart="66.00" departLane="N_in_1" departPos="112.37" departSpeed="10.40" departDelay="0.64" arrival="111.00" arrivalLane="E_out_1" arrivalPos="189.60" arrivalSpeed="14.39" duration="45.00" routeLength="286.18" waitingTime="16.00" waitingCount="2" stopTime="0.00" timeLoss="25.04" rerouteNo="0" devices="vehroute_flow_2_phase1_N_left.2 tripinfo_flow_2_phase1_N_left.2" vType="emergency" speedFactor="1.10" vaporized=""/>
    <tripinfo id="flow_13_phase1_W_straight.5" depart="67.00" departLane="W_in_1" departPos="21.68" departSpeed="6.53" departDelay="0.08" arrival="113.00" arrivalLane="E_out_0" arrivalPos="189.60" arrivalSpeed="15.81" duration="46.00" routeLength="378.32" waitingTime="10.00" waitingCount="1" stopTime="0.00" timeLoss="21.51" rerouteNo="0" devices="vehroute_flow_13_phase1_W_straight.5 tripinfo_flow_13_phase1_W_straight.5" vType="moto" speedFactor="1.14" vaporized=""/>
    <tripinfo id="flow_9_phase1_E_straight.6" depart="78.00" departLane="E_in_0" departPos="69.49" departSpeed="6.31" departDelay="0.74" arrival="113.00" arrivalLane="N_out_0" arrivalPos="189.60" arrivalSpeed="13.47" duration="35.00" routeLength="318.74" waitingTime="6.00" waitingCount="1" stopTime="0.00" timeLoss="11.57" rerouteNo="0" devices="vehroute_flow_9_phase1_E_straight.6 tripinfo_flow_9_phase1_E_straight.6" vType="moto" speedFactor="1.02" vaporized=""/>
    <tripinfo id="flow_14_phase1_W_left.2" depart="69.00" departLane="W_in_0" departPos="61.32" departSpeed="5.57" departDelay="0.06" arrival="116.00" arrivalLane="N_out_1" arrivalPos="189.60" arrivalSpeed="11.75" duration="47.00" routeLength="337.23" waitingTime="12.00" waitingCount="1" stopTime="0.00" timeLoss="18.97" rerouteNo="0" devices="vehroute_flow_14_phase1_W_left.2 tripinfo_flow_14_phase1_W_left.2" vType="car" speedFactor="0.90" vaporized=""/>
    <tripinfo id="flow_13_phase1_W_straight.6" depart="81.00" departLane="W_in_1" departPos="21.74" departSpeed="10.71" departDelay="0.70" arrival="116.00" arrivalLane="E_out_1" arrivalPos="189.60" arrivalSpeed="13.46" duration="35.00" routeLength="378.26" waitingTime="0.00" waitingCount="0" stopTime="0.00" timeLoss="6.68" rerouteNo="0" devices="vehroute_flow_13_phase1_W_straight.6 tripinfo_flow_13_phase1_W_straight.6" vType="car" speedFactor="0.98" vaporized=""/>
    <tripinfo id="flow_9_phase1_E_straight.7" depart="91.00" departLane="E_in_0" departPos="60.83" departSpeed="12.89" departDelay="0.86" arrival="118.00" arrivalLane="N_out_0" arrivalPos="189.60" arrivalSpeed="13.93" duration="27.00" routeLength="327.40" waitingTime="0.00" waitingCount="0" stopTime="0.00" timeLoss="2.90" rerouteNo="0" devices="vehroute_flow_9_phase1_E_straight.7 tripinfo_flow_9_phase1_E_straight.7" vType="moto" speedFactor="1.01" vaporized=""/>
    <tripinfo id="flow_10_phase1_E_left.2" depart="67.00" departLane="E_in_1" departPos="92.22" departSpeed="0.17" departDelay="0.00" arrival="119.00" arrivalLane="S_out_1" arrivalPos="189.60" arrivalSpeed="14.39" duration="52.00" routeLength="306.33" waitingTime="14.00" waitingCount="2" stopTime="0.00" timeLoss="30.49" rerouteNo="0" devices="vehroute_flow_10_phase1_E_left.2 tripinfo_flow_10_phase1_E_left.2" vType="moto" speedFactor="1.07" vaporized=""/>
    <tripinfo id="flow_13_phase1_W_straight.7" depart="94.00" departLane="W_in_0" departPos="178.36" departSpeed="2.65" departDelay="0.31" arrival="119.00" arrivalLane="E_out_0" arrivalPos="189.60" arrivalSpeed="10.92" duration="25.00" routeLength="221.64" waitingTime="0.00" waitingCount="0" stopTime="0.00" timeLoss="5.08" rerouteNo="0" devices="vehroute_flow_13_phase1_W_straight.7 tripinfo_flow_13_phase1_W_straight.7" vType="moto" speedFactor="0.80" vaporized=""/>
    <tripinfo id="flow_6_phase1_S_left.3" depart="101.00" departLane="E_in_0" departPos="150.32" departSpeed="6.56" departDelay="0.64" arrival="121.00" arrivalLane="S_out_1" arrivalPos="189.60" arrivalSpeed="14.10" duration="20.00" routeLength="248.23" waitingTime="0.00" waitingCount="0" stopTime="0.00" timeLoss="2.56" rerouteNo="0" devices="vehroute_flow_6_phase1_S_left.3 tripinfo_flow_6_phase1_S_left.3" vType="car" speedFactor="1.10" vaporized=""/>
    <tripinfo id="flow_15_phase1_W_right.3" depart="99.00" departLane="S_in_1" departPos="111.57" departSpeed="0.12" departDelay="0.49" arrival="124.00" arrivalLane="E_out_0" arrivalPos="189.60" arrivalSpeed="15.24" duration="25.00" routeLength="276.66" waitingTime="0.00" waitingCount="0" stopTime="0.00" timeLoss="6.51" rerouteNo="0" devices="vehroute_flow_15_phase1_W_right.3 tripinfo_flow_15_phase1_W_right.3" vType="moto" speedFactor="1.17" vaporized=""/>