<?xml version="1.0" encoding="UTF-8"?>

<!-- generated on 2025-12-08 21:28:21 by Eclipse SUMO sumo Version 1.18.0
<configuration xmlns:xsi="http://www.w3.org/2001/XMLSchema-instance" xsi:noNamespaceSchemaLocation="http://sumo.dlr.de/xsd/sumoConfiguration.xsd">

    <input>
        <net-file value="/workspace/nets/60p2k/net.net.xml"/>
        <route-files value="/workspace/nets/60p2k/route_temp_244_130720908769792_63793894.rou.xml"/>
    </input>

    <output>
        <summary-output value="results/summary_ep_17.xml"/>
        <tripinfo-output value="results/tripinfo_ep_17.xml"/>
        <vehroute-output value="results/vehroute_ep_17.xml"/>
    </output>

    <time>
        <begin value="0"/>
    </time>

    <report>
        <verbose value="true"/>
        <no-step-log value="true"/>
    </report>

    <traci_server>
        <remote-port value="48845"/>
    </traci_server>

    <gui_only>
        <gui-settings-file value="/workspace/nets/60p2k/gui-settings.xml"/>
        <quit-on-end value="true"/>
    </gui_only>

</configuration>
-->

<tripinfos xmlns:xsi="http://www.w3.org/2001/XMLSchema-instance" xsi:noNamespaceSchemaLocation="http://sumo.dlr.de/xsd/tripinfo_file.xsd">
    <tripinfo id="flow_8_phase1_S_uturn.0" depart="0.00" departLane="S_in_0" departPos="120.11" departSpeed="4.48" departDelay="0.00" arrival="24.00" arrivalLane="S_out_1" arrivalPos="189.60" arrivalSpeed="13.35" duration="24.00" routeLength="263.76" waitingTime="0.00" waitingCount="0" stopTime="0.00" timeLoss="5.04" rerouteNo="0" devices="vehroute_flow_8_phase1_S_uturn.0 tripinfo_flow_8_phase1_S_uturn.0" vType="moto" speedFactor="1.05" vaporized=""/>
    <tripinfo id="flow_9_phase1_E_straight.0" depart="0.00" departLane="N_in_0" departPos="168.29" departSpeed="9.83" departDelay="0.00" arrival="24.00" arrivalLane="N_out_1" arrivalPos="189.60" arrivalSpeed="11.94" duration="24.00" routeLength="215.58" waitingTime="0.00" waitingCount="0" stopTime="0.00" timeLoss="5.82" rerouteNo="0" devices="vehroute_flow_9_phase1_E_straight.0 tripinfo_flow_9_phase1_E_straight.0" vType="truck" speedFactor="0.90" vaporized=""/>
    <tripinfo id="flow_6_phase1_S_left.0" depart="0.00" departLane="S_in_1" departPos="166.01" departSpeed="0.74" departDelay="0.00" arrival="25.00" arrivalLane="W_out_1" arrivalPos="189.60" arrivalSpeed="11.17" duration="25.00" routeLength="232.54" waitingTime="0.00" waitingCount="0" stopTime="0.00" timeLoss="4.30" rerouteNo="0" devices="vehroute_flow_6_phase1_S_left.0 tripinfo_flow_6_phase1_S_left.0" vType="moto" speedFactor="0.88" vaporized=""/>
    <tripinfo id="flow_5_phase1_S_straight.0" depart="0.00" departLane="S_in_1" departPos="107.37" departSpeed="7.21" departDelay="0.00" arrival="26.00" arrivalLane="N_out_1" arrivalPos="189.60" arrivalSpeed="14.65" duration="26.00" routeLength="292.63" waitingTime="0.00" waitingCount="0" stopTime="0.00" timeLoss="7.04" rerouteNo="0" devices="vehroute_flow_5_phase1_S_straight.0 tripinfo_flow_5_phase1_S_straight.0" vType="moto" speedFactor="1.15" vaporized=""/>
    <tripinfo id="flow_2_phase1_N_left.0" depart="0.00" departLane="N_in_1" departPos="8.27" departSpeed="8.33" departDelay="0.00" arrival="31.00" arrivalLane="E_out_1" arrivalPos="189.60" arrivalSpeed="13.89" duration="31.00" routeLength="390.28" waitingTime="0.00" waitingCount="0" stopTime="0.00" timeLoss="2.62" rerouteNo="0" devices="vehroute_flow_2_phase1_N_left.0 tripinfo_flow_2_phase1_N_left.0" vType="moto" speedFactor="1.02" vaporized=""/>
    <tripinfo id="flow_9_phase1_E_straight.1" depart="13.00" departLane="N_in_1" departPos="177.29" departSpeed="8.41" departDelay="0.12" arrival="32.00" arrivalLane="N_out_1" arrivalPos="189.60" arrivalSpeed="15.91" duration="19.00" routeLength="206.58" waitingTime="0.00" waitingCount="0" stopTime="0.00" timeLoss="3.95" rerouteNo="0" devices="vehroute_flow_9_phase1_E_straight.1 tripinfo_flow_9_phase1_E_straight.1" vType="moto" speedFactor="1.16" vaporized=""/>
    <tripinfo id="flow_12_phase1_E_uturn.0" depart="0.00" departLane="E_in_0" departPos="129.89" departSpeed="13.76" departDelay="0.00" arrival="36.00" arrivalLane="W_out_0" arrivalPos="189.60" arrivalSpeed="14.15" duration="36.00" routeLength="270.11" waitingTime="9.00" waitingCount="1" stopTime="0.00" timeLoss="16.52" rerouteNo="0" devices="vehroute_flow_12_phase1_E_uturn.0 tripinfo_flow_12_phase1_E_uturn.0" vType="moto" speedFactor="1.03" vaporized=""/>
    <tripinfo id="flow_16_phase1_W_uturn.0" depart="0.00" departLane="W_in_0" departPos="135.67" departSpeed="9.64" departDelay="0.00" arrival="36.00" arrivalLane="W_out_1" arrivalPos="189.60" arrivalSpeed="13.50" duration="36.00" routeLength="248.20" waitingTime="9.00" waitingCount="1" stopTime="0.00" timeLoss="16.98" rerouteNo="0" devices="vehroute_flow_16_phase1_W_uturn.0 tripinfo_flow_16_phase1_W_uturn.0" vType="moto" speedFactor="1.04" vaporized=""/>
    <tripinfo id="flow_3_phase1_N_right.0" depart="0.00" departLane="W_in_0" departPos="103.38" departSpeed="3.75" departDelay="0.00" arrival="38.00" arrivalLane="W_out_1" arrivalPos="189.60" arrivalSpeed="14.46" duration="38.00" routeLength="280.49" waitingTime="8.00" waitingCount="1" stopTime="0.00" timeLoss="18.08" rerouteNo="0" devices="vehroute_flow_3_phase1_N_right.0 tripinfo_flow_3_phase1_N_right.0" vType="car" speedFactor="1.09" vaporized=""/>
    <tripinfo id="flow_4_phase1_N_uturn.0" depart="0.00" departLane="W_in_1" departPos="127.60" departSpeed="0.08" departDelay="0.00" arrival="39.00" arrivalLane="S_out_1" arrivalPos="189.60" arrivalSpeed="12.20" duration="39.00" routeLength="260.63" waitingTime="8.00" waitingCount="1" stopTime="0.00" timeLoss="17.53" rerouteNo="0" devices="vehroute_flow_4_phase1_N_uturn.0 tripinfo_flow_4_phase1_N_uturn.0" vType="car" speedFactor="0.92" vaporized=""/>
    <tripinfo id="flow_15_phase1_W_right.0" depart="0.00" departLane="W_in_1" departPos="153.90" departSpeed="6.73" departDelay="0.00" arrival="39.00" arrivalLane="S_out_0" arrivalPos="189.60" arrivalSpeed="10.97" duration="39.00" routeLength="234.33" waitingTime="11.00" waitingCount="1" stopTime="0.00" timeLoss="17.81" rerouteNo="0" devices="vehroute_flow_15_phase1_W_right.0 tripinfo_flow_15_phase1_W_right.0" vType="moto" speedFactor="0.85" vaporized=""/>
    <tripinfo id="flow_14_phase1_W_left.0" depart="0.00" departLane="W_in_1" departPos="42.31" departSpeed="3.71" departDelay="0.00" arrival="41.00" arrivalLane="N_out_1" arrivalPos="189.60" arrivalSpeed="13.41" duration="41.00" routeLength="356.24" waitingTime="5.00" waitingCount="1" stopTime="0.00" timeLoss="14.70" rerouteNo="0" devices="vehroute_flow_14_phase1_W_left.0 tripinfo_flow_14_phase1_W_left.0" vType="moto" speedFactor="1.01" vaporized=""/>
    <tripinfo id="flow_11_phase1_E_right.0" depart="0.00" departLane="E_in_1" departPos="144.95" departSpeed="4.02" departDelay="0.00" arrival="42.00" arrivalLane="N_out_0" arrivalPos="189.60" arrivalSpeed="13.22" duration="42.00" routeLength="243.28" waitingTime="11.00" waitingCount="1" stopTime="0.00" timeLoss="22.69" rerouteNo="0" devices="vehroute_flow_11_phase1_E_right.0 tripinfo_flow_11_phase1_E_right.0" vType="bus" speedFactor="0.96" vaporized=""/>
    <tripinfo id="flow_10_phase1_E_left.0" depart="0.00" departLane="E_in_0" departPos="44.88" departSpeed="7.69" departDelay="0.00" arrival="43.00" arrivalLane="S_out_1" arrivalPos="189.60" arrivalSpeed="14.11" duration="43.00" routeLength="353.67" waitingTime="5.00" waitingCount="1" stopTime="0.00" timeLoss="17.00" rerouteNo="0" devices="vehroute_flow_10_phase1_E_left.0 tripinfo_flow_10_phase1_E_left.0" vType="truck" speedFactor="1.02" vaporized=""/>
    <tripinfo id="flow_9_phase1_E_straight.2" depart="26.00" departLane="N_in_1" departPos="175.97" departSpeed="7.55" departDelay="0.25" arrival="50.00" arrivalLane="N_out_1" arrivalPos="189.60" arrivalSpeed="13.04" duration="24.00" routeLength="207.90" waitingTime="0.00" waitingCount="0" stopTime="0.00" timeLoss="7.50" rerouteNo="0" devices="vehroute_flow_9_phase1_E_straight.2 tripinfo_flow_9_phase1_E_straight.2" vType="moto" speedFactor="0.99" vaporized=""/>
    <tripinfo id="flow_5_phase1_S_straight.1" depart="14.00" departLane="S_in_1" departPos="34.76" departSpeed="2.69" departDelay="0.77" arrival="53.00" arrivalLane="N_out_1" arrivalPos="189.60" arrivalSpeed="15.73" duration="39.00" routeLength="365.24" waitingTime="3.00" waitingCount="1" stopTime="0.00" timeLoss="15.85" rerouteNo="0" devices="vehroute_flow_5_phase1_S_straight.1 tripinfo_flow_5_phase1_S_straight.1" vType="moto" speedFactor="1.19" vaporized=""/>
    <tripinfo id="flow_7_phase1_S_right.0" depart="0.00" departLane="S_in_0" departPos="8.76" departSpeed="8.07" departDelay="0.00" arrival="57.00" arrivalLane="S_out_0" arrivalPos="189.60" arrivalSpeed="11.75" duration="57.00" routeLength="375.11" waitingTime="12.00" waitingCount="1" stopTime="0.00" timeLoss="23.40" rerouteNo="0" devices="vehroute_flow_7_phase1_S_right.0 tripinfo_flow_7_phase1_S_right.0" vType="container" speedFactor="0.85" vaporized=""/>
    <tripinfo id="flow_13_phase1_W_straight.0" depart="0.00" departLane="S_in_0" departPos="77.99" departSpeed="1.48" departDelay="0.00" arrival="57.00" arrivalLane="N_out_0" arrivalPos="189.60" arrivalSpeed="11.38" duration="57.00" routeLength="322.01" waitingTime="11.00" waitingCount="1" stopTime="0.00" timeLoss="28.63" rerouteNo="0" devices="vehroute_flow_13_phase1_W_straight.0 tripinfo_flow_13_phase1_W_straight.0" vType="container" speedFactor="0.82" vaporized=""/>
    <tripinfo id="flow_13_phase1_W_straight.2" depart="27.00" departLane="S_in_1" departPos="107.53" departSpeed="1.15" departDelay="0.23" arrival="57.00" arrivalLane="N_out_1" arrivalPos="189.60" arrivalSpeed="13.37" duration="30.00" routeLength="292.47" waitingTime="0.00" waitingCount="0" stopTime="0.00" timeLoss="8.11" rerouteNo="0" devices="vehroute_flow_13_phase1_W_straight.2 tripinfo_flow_13_phase1_W_straight.2" vType="bus" speedFactor="0.97" vaporized=""/>
    <tripinfo id="flow_13_phase1_W_straight.1" depart="14.00" departLane="S_in_0" departPos="5.28" departSpeed="2.37" departDelay="0.62" arrival="59.00" arrivalLane="N_out_0" arrivalPos="189.60" arrivalSpeed="15.17" duration="45.00" routeLength="394.72" waitingTime="1.00" waitingCount="1" stopTime="0.00" timeLoss="19.56" rerouteNo="0" devices="vehroute_flow_13_phase1_W_straight.1 tripinfo_flow_13_phase1_W_straight.1" vType="car" speedFactor="1.12" vaporized=""/>
    <tripinfo id="flow_15_phase1_W_right.1" depart="33.00" departLane="W_in_1" departPos="79.10" departSpeed="8.77" departDelay="0.16" arrival="59.00" arrivalLane="S_out_0" arrivalPos="189.60" arrivalSpeed="14.93" duration="26.00" routeLength="309.13" waitingTime="0.00" waitingCount="0" stopTime="0.00" timeLoss="4.97" rerouteNo="0" devices="vehroute_flow_15_phase1_W_right.1 tripinfo_flow_15_phase1_W_right.1" vType="moto" speedFactor="1.08" vaporized=""/>
    <tripinfo id="flow_11_phase1_E_right.1" depart="33.00" departLane="E_in_1" departPos="97.23" departSpeed="5.62" departDelay="0.51" arrival="61.00" arrivalLane="N_out_0" arrivalPos="189.60" arrivalSpeed="14.27" duration="28.00" routeLength="291.00" waitingTime="1.00" waitingCount="1" stopTime="0.00" timeLoss="6.89" rerouteNo="0" devices="vehroute_flow_11_phase1_E_right.1 tripinfo_flow_11_phase1_E_right.1" vType="moto" speedFactor="1.04" vaporized=""/>
    <tripinfo id="flow_3_phase1_N_right.1" depart="35.00" departLane="W_in_0" departPos="93.41" departSpeed="9.86" departDelay="0.82" arrival="65.00" arrivalLane="W_out_1" arrivalPos="189.60" arrivalSpeed="12.21" duration="30.00" routeLength="290.46" waitingTime="0.00" waitingCount="0" stopTime="0.00" timeLoss="4.99" rerouteNo="0" devices="vehroute_flow_3_phase1_N_right.1 tripinfo_flow_3_phase1_N_right.1" vType="moto" speedFactor="0.88" vaporized=""/>
    <tripinfo id="flow_1_phase1_N_straight.0" depart="0.00" departLane="E_in_0" departPos="8.62" departSpeed="8.51" departDelay="0.00" arrival="67.00" arrivalLane="E_out_0" arrivalPos="189.60" arrivalSpeed="11.46" duration="67.00" routeLength="375.25" waitingTime="16.00" waitingCount="2" stopTime="0.00" timeLoss="34.11" rerouteNo="0" devices="vehroute_flow_1_phase1_N_straight.0 tripinfo_flow_1_phase1_N_straight.0" vType="bus" speedFactor="0.86" vaporized=""/>
    <tripinfo id="flow_1_phase1_N_straight.1" depart="14.00" departLane="E_in_0" departPos="93.39" departSpeed="3.73" departDelay="0.48" arrival="70.00" arrivalLane="E_out_1" arrivalPos="189.60" arrivalSpeed="11.90" duration="56.00" routeLength="290.48" waitingTime="13.00" waitingCount="1" stopTime="0.00" timeLoss="30.95" rerouteNo="0" devices="vehroute_flow_1_phase1_N_straight.1 tripinfo_flow_1_phase1_N_straight.1" vType="moto" speedFactor="0.87" vaporized=""/>
    <tripinfo id="flow_14_phase1_W_left.1" depart="35.00" departLane="W_in_0" departPos="86.42" departSpeed="5.11" departDelay="0.53" arrival="72.00" arrivalLane="N_out_1" arrivalPos="189.60" arrivalSpeed="12.38" duration="37.00" routeLength="312.13" waitingTime="0.00" waitingCount="0" stopTime="0.00" timeLoss="11.41" rerouteNo="0" devices="vehroute_flow_14_phase1_W_left.1 tripinfo_flow_14_phase1_W_left.1" vType="container" speedFactor="0.91" vaporized=""/>
    <tripinfo id="flow_5_phase1_S_straight.3" depart="40.00" departLane="S_in_0" departPos="65.01" departSpeed="6.15" departDelay="0.31" arrival="75.00" arrivalLane="N_out_0" arrivalPos="189.60" arrivalSpeed="13.99" duration="35.00" routeLength="334.99" waitingTime="4.00" waitingCount="1" stopTime="0.00" timeLoss="11.77" rerouteNo="0" devices="vehroute_flow_5_phase1_S_straight.3 tripinfo_flow_5_phase1_S_straight.3" vType="moto" speedFactor="1.08" vaporized=""/>
    <tripinfo id="flow_5_phase1_S_straight.2" depart="27.00" departLane="S_in_1" departPos="59.51" departSpeed="2.39" departDelay="0.54" arrival="76.00" arrivalLane="N_out_1" arrivalPos="189.60" arrivalSpeed="12.13" duration="49.00" routeLength="340.49" waitingTime="10.00" waitingCount="1" stopTime="0.00" timeLoss="23.18" rerouteNo="0" devices="vehroute_flow_5_phase1_S_straight.2 tripinfo_flow_5_phase1_S_straight.2" vType="moto" speedFactor="0.96" vaporized=""/>
    <tripinfo id="flow_10_phase1_E_left.1" depart="34.00" departLane="E_in_0" departPos="166.00" departSpeed="1.12" departDelay="0.50" arrival="76.00" arrivalLane="S_out_0" arrivalPos="189.60" arrivalSpeed="10.55" duration="42.00" routeLength="232.55" waitingTime="8.00" waitingCount="1" stopTime="0.00" timeLoss="18.52" rerouteNo="0" devices="vehroute_flow_10_phase1_E_left.1 tripinfo_flow_10_phase1_E_left.1" vType="truck" speedFactor="0.77" vaporized=""/>
    <tripinfo id="flow_13_phase1_W_straight.3" depart="41.00" departLane="S_in_1" departPos="53.32" departSpeed="11.38" departDelay="0.85" arrival="76.00" arrivalLane="N_out_0" arrivalPos="189.60" arrivalSpeed="14.48" duration="35.00" routeLength="346.68" waitingTime="1.00" waitingCount="1" stopTime="0.00" timeLoss="10.91" rerouteNo="0" devices="vehroute_flow_13_phase1_W_straight.3 tripinfo_flow_13_phase1_W_straight.3" vType="car" speedFactor="1.05" vaporized=""/>
    <tripinfo id="flow_5_phase1_S_straight.4" depart="53.00" departLane="S_in_0" departPos="70.46" departSpeed="11.90" departDelay="0.08" arrival="80.00" arrivalLane="N_out_0" arrivalPos="189.60" arrivalSpeed="13.00" duration="27.00" routeLength="329.54" waitingTime="0.00" waitingCount="0" stopTime="0.00" timeLoss="2.00" rerouteNo="0" devices="vehroute_flow_5_phase1_S_straight.4 tripinfo_flow_5_phase1_S_straight.4" vType="container" speedFactor="0.97" vaporized=""/>
    <tripinfo id="flow_2_phase1_N_left.1" depart="33.00" departLane="N_in_1" departPos="66.71" departSpeed="11.27" departDelay="0.32" arrival="83.00" arrivalLane="E_out_1" arrivalPos="189.60" arrivalSpeed="14.48" duration="50.00" routeLength="331.84" waitingTime="19.00" waitingCount="2" stopTime="0.00" timeLoss="27.92" rerouteNo="0" devices="vehroute_flow_2_phase1_N_left.1 tripinfo_flow_2_phase1_N_left.1" vType="moto" speedFactor="1.12" vaporized=""/>
    <tripinfo id="flow_11_phase1_E_right.2" depart="65.00" departLane="E_in_1" departPos="129.09" departSpeed="6.03" departDelay="0.02" arrival="87.00" arrivalLane="N_out_0" arrivalPos="189.60" arrivalSpeed="15.68" duration="22.00" routeLength="259.14" waitingTime="0.00" waitingCount="0" stopTime="0.00" timeLoss="4.77" rerouteNo="0" devices="vehroute_flow_11_phase1_E_right.2 tripinfo_flow_11_phase1_E_right.2" vType="moto" speedFactor="1.14" vaporized=""/>
    <tripinfo id="flow_1_phase1_N_straight.2" depart="28.00" departLane="E_in_0" departPos="8.88" departSpeed="2.33" departDelay="0.97" arrival="88.00" arrivalLane="E_out_1" arrivalPos="189.60" arrivalSpeed="12.75" duration="60.00" routeLength="374.99" waitingTime="14.00" waitingCount="2" stopTime="0.00" timeLoss="30.10" rerouteNo="0" devices="vehroute_flow_1_phase1_N_straight.2 tripinfo_flow_1_phase1_N_straight.2" vType="moto" speedFactor="0.93" vaporized=""/>
    <tripinfo id="flow_7_phase1_S_right.1" depart="33.00" departLane="S_in_1" departPos="80.24" departSpeed="2.32" departDelay="0.51" arrival="88.00" arrivalLane="S_out_0" arrivalPos="189.60" arrivalSpeed="10.67" duration="55.00" routeLength="303.63" waitingTime="7.00" waitingCount="1" stopTime="0.00" timeLoss="24.94" rerouteNo="0" devices="vehroute_flow_7_phase1_S_right.1 tripinfo_flow_7_phase1_S_right.1" vType="container" speedFactor="0.78" vaporized=""/>
    <tripinfo id="flow_16_phase1_W_uturn.1" depart="67.00" departLane="W_in_1" departPos="177.50" departSpeed="7.04" departDelay="0.80" arrival="88.00" arrivalLane="W_out_1" arrivalPos="189.60" arrivalSpeed="13.36" duration="21.00" routeLength="206.37" waitingTime="0.00" waitingCount="0" stopTime="0.00" timeLoss="4.87" rerouteNo="0" devices="vehroute_flow_16_phase1_W_uturn.1 tripinfo_flow_16_phase1_W_uturn.1" vType="moto" speedFactor="1.04" vaporized=""/>
    <tripinfo id="flow_12_phase1_E_uturn.1" depart="66.00" departLane="E_in_0" departPos="185.99" departSpeed="0.19" departDelay="0.19" arrival="89.00" arrivalLane="W_out_0" arrivalPos="189.60" arrivalSpeed="12.91" duration="23.00" routeLength="214.01" waitingTime="1.00" waitingCount="1" stopTime="0.00" timeLoss="6.60" rerouteNo="0" devices="vehroute_flow_12_phase1_E_uturn.1 tripinfo_flow_12_phase1_E_uturn.1" vType="moto" speedFactor="0.95" vaporized=""/>
    <tripinfo id="flow_1_phase1_N_straight.3" depart="41.00" departLane="E_in_1" departPos="88.42" departSpeed="1.62" departDelay="0.45" arrival="90.00" arrivalLane="E_out_1" arrivalPos="189.60" arrivalSpeed="14.73" duration="49.00" routeLength="295.45" waitingTime="11.00" waitingCount="1" stopTime="0.00" timeLoss="29.10" rerouteNo="0" devices="vehroute_flow_1_phase1_N_straight.3 tripinfo_flow_1_phase1_N_straight.3" vType="moto" speedFactor="1.20" vaporized=""/>
    <tripinfo id="flow_15_phase1_W_right.2" depart="66.00" departLane="W_in_0" departPos="171.28" departSpeed="5.96" departDelay="0.32" arrival="90.00" arrivalLane="S_out_0" arrivalPos="189.60" arrivalSpeed="11.21" duration="24.00" routeLength="216.95" waitingTime="0.00" waitingCount="0" stopTime="0.00" timeLoss="5.18" rerouteNo="0" devices="vehroute_flow_15_phase1_W_right.2 tripinfo_flow_15_phase1_W_right.2" vType="moto" speedFactor="0.89" vaporized=""/>
    <tripinfo id="flow_4_phase1_N_uturn.1" depart="67.00" departLane="W_in_0" departPos="151.29" departSpeed="4.51" departDelay="0.96" arrival="91.00" arrivalLane="S_out_0" arrivalPos="189.60" arrivalSpeed="12.99" duration="24.00" routeLength="236.94" waitingTime="0.00" waitingCount="0" stopTime="0.00" timeLoss="5.17" rerouteNo="0" devices="vehroute_flow_4_phase1_N_uturn.1 tripinfo_flow_4_phase1_N_uturn.1" vType="moto" speedFactor="0.94" vaporized=""/>
    <tripinfo id="flow_14_phase1_W_left.2" depart="69.00" departLane="W_in_1" departPos="137.11" departSpeed="4.03" departDelay="0.06" arrival="94.00" arrivalLane="N_out_1" arrivalPos="189.60" arrivalSpeed="12.22" duration="25.00" routeLength="261.44" waitingTime="0.00" waitingCount="0" stopTime="0.00" timeLoss="3.10" rerouteNo="0" devices="vehroute_flow_14_phase1_W_left.2 tripinfo_flow_14_phase1_W_left.2" vType="car" speedFactor="0.90" vaporized=""/>
    <tripinfo id="flow_1_phase1_N_straight.4" depart="55.00" departLane="E_in_1" departPos="160.30" departSpeed="7.51" departDelay="0.94" arrival="96.00" arrivalLane="E_out_1" arrivalPos="189.60" arrivalSpeed="12.51" duration="41.00" routeLength="223.57" waitingTime="11.00" waitingCount="1" stopTime="0.00" timeLoss="22.23" rerouteNo="0" devices="vehroute_flow_1_phase1_N_straight.4 tripinfo_flow_1_phase1_N_straight.4" vType="truck" speedFactor="0.92" vaporized=""/>
    <tripinfo id="flow_6_phase1_S_left.1" depart="34.00" departLane="S_in_0" departPos="4.52" departSpeed="14.19" departDelay="0.55" arrival="100.00" arrivalLane="W_out_1" arrivalPos="189.60" arrivalSpeed="14.08" duration="66.00" routeLength="394.03" waitingTime="19.00" waitingCount="2" stopTime="0.00" timeLoss="38.00" rerouteNo="0" devices="vehroute_flow_6_phase1_S_left.1 tripinfo_flow_6_phase1_S_left.1" vType="moto" speedFactor="1.05" vaporized=""/>
    <tripinfo id="flow_13_phase1_W_straight.4" depart="54.00" departLane="S_in_1" departPos="74.07" departSpeed="0.51" departDelay="0.46" arrival="108.00" arrivalLane="N_out_0" arrivalPos="189.60" arrivalSpeed="11.96" duration="54.00" routeLength="325.93" waitingTime="10.00" waitingCount="1" stopTime="0.00" timeLoss="26.16" rerouteNo="0" devices="vehroute_flow_13_phase1_W_straight.4 tripinfo_flow_13_phase1_W_straight.4" vType="bus" speedFactor="0.87" vaporized=""/>
    <tripinfo id="flow_13_phase1_W_straight.5" depart="67.00" departLane="S_in_1" departPos="74.60" departSpeed="13.00" departDelay="0.08" arrival="109.00" arrivalLane="N_out_1" arrivalPos="189.60" arrivalSpeed="15.05" duration="42.00" routeLength="325.40" waitingTime="2.00" waitingCount="1" stopTime="0.00" timeLoss="20.66" rerouteNo="0" devices="vehroute_flow_13_phase1_W_straight.5 tripinfo_flow_13_phase1_W_straight.5" vType="moto" speedFactor="1.14" vaporized=""/>
    <tripinfo id="flow_3_phase1_N_right.2" depart="69.00" departLane="W_in_1" departPos="29.07" departSpeed="3.19" departDelay="0.63" arrival="112.00" arrivalLane="W_out_1" arrivalPos="189.60" arrivalSpeed="14.40" duration="43.00" routeLength="354.80" waitingTime="10.00" waitingCount="1" stopTime="0.00" timeLoss="19.03" rerouteNo="0" devices="vehroute_flow_3_phase1_N_right.2 tripinfo_flow_3_phase1_N_right.2" vType="moto" speedFactor="1.10" vaporized=""/>
    <tripinfo id="flow_10_phase1_E_left.2" depart="67.00" departLane="E_in_1" departPos="21.68" departSpeed="6.11" departDelay="0.00" arrival="115.00" arrivalLane="S_out_1" arrivalPos="189.60" arrivalSpeed="13.74" duration="48.00" routeLength="376.87" waitingTime="13.00" waitingCount="1" stopTime="0.00" timeLoss="21.46" rerouteNo="0" devices="vehroute_flow_10_phase1_E_left.2 tripinfo_flow_10_phase1_E_left.2" vType="moto" speedFactor="1.07" vaporized=""/>
    <tripinfo id="flow_1_phase1_N_straight.5" depart="68.00" departLane="E_in_1" departPos="159.96" departSpeed="5.80" departDelay="0.42" arrival="116.00" arrivalLane="E_out_1" arrivalPos="189.60" arrivalSpeed="11.47" duration="48.00" routeLength="223.91" waitingTime="16.00" waitingCount="1" stopTime="0.00" timeLoss="28.59" rerouteNo="0" devices="vehroute_flow_1_phase1_N_straight.5 tripinfo_flow_1_phase1_N_straight.5" vType="moto" speedFactor="0.90" vaporized=""/>
    <tripinfo id="flow_9_phase1_E_straight.3" depart="39.00" departLane="N_in_0" departPos="184.19" departSpeed="4.20" departDelay="0.37" arrival="118.00" arrivalLane="N_out_0" arrivalPos="189.60" arrivalSpeed="11.60" duration="79.00" routeLength="199.68" waitingTime="51.00" waitingCount="3" stopTime="0.00" timeLoss="60.85" rerouteNo="0" devices="vehroute_flow_9_phase1_E_straight.3 tripinfo_flow_9_phase1_E_straight.3" vType="bus" speedFactor="0.85" vaporized=""/>
    <tripinfo id="flow_1_phase1_N_straight.6" depart="82.00" departLane="E_in_1" departPos="37.04" departSpeed="3.10" departDelay="0.90" arrival="119.00" arrivalLane="E_out_1" arrivalPos="189.60" arrivalSpeed="12.78" duration="37.00" routeLength="346.83" waitingTime="0.00" waitingCount="0" stopTime="0.00" timeLoss="10.35" rerouteNo="0" devices="vehroute_flow_1_phase1_N_straight.6 tripinfo_flow_1_phase1_N_straight.6" vType="car" speedFactor="0.98" vaporized=""/>
    <tripinfo id="flow_1_phase1_N_straight.7" depart="95.00" departLane="E_in_1" departPos="150.35" departSpeed="8.40" departDelay="0.39" arrival="121.00" arrivalLane="E_out_1" arrivalPos="189.60" arrivalSpeed="13.50" duration="26.00" routeLength="233.52" waitingTime="0.00" waitingCount="0" stopTime="0.00" timeLoss="8.79" rerouteNo="0" devices="vehroute_flow_1_phase1_N_straight.7 tripinfo_flow_1_phase1_N_straight.7" vType="moto" speedFactor="1.06" vaporized=""/>
    <tripinfo id="flow_11_phase1_E_right.3" depart="98.00" departLane="E_in_0" departPos="140.51" departSpeed="8.68" departDelay="0.53" arrival="124.00" arrivalLane="N_out_0" arrivalPos="189.60" arrivalSpeed="11.37" duration="26.00" routeLength="247.72" waitingTime="0.00" waitingCount="0" stopTime="0.00" timeLoss="3.16" rerouteNo="0" devices="vehroute_flow_11_phase1_E_right.3 tripinfo_flow_11_phase1_E_right.3" vType="moto" speedFactor="0.83" vaporized=""/>
    <tripinfo id="flow_5_phase1_S_straight.5" depart="67.00" departLane="S_in_0" departPos="0.16" departSpeed="4.83" departDelay="0.85" arrival="127.00" arrivalLane="N_out_0" arrivalPos="189.60" arrivalSpeed="13.66" duration="60.00" routeLength="399.84" waitingTime="16.00" waitingCount="3" stopTime="0.00" timeLoss="31.38" rerouteNo="0" devices="vehroute_flow_5_phase1_S_straight.5 tripinfo_flow_5_phase1_S_straight.5" vType="moto" speedFactor="1.03" vaporized=""/>
    <tripinfo id="flow_5_phase1_S_straight.6" depart="80.00" departLane="S_in_0" departPos="24.55" departSpeed="8.85" departDelay="0.62" arrival="128.00" arrivalLane="N_out_0" arrivalPos="189.60" arrivalSpeed="14.60" duration="48.00" routeLength="375.45" waitingTime="10.00" waitingCount="1" stopTime="0.00" timeLoss="23.14" rerouteNo="0" devices="vehroute_flow_5_phase1_S_straight.6 tripinfo_flow_5_phase1_S_straight.6" vType="moto" speedFactor="1.10" vaporized=""/>
    <tripinfo id="flow_8_phase1_S_uturn.1" depart="66.00" departLane="S_in_0" departPos="179.13" departSpeed="6.49" departDelay="0.07" arrival="130.00" arrivalLane="S_out_1" arrivalPos="189.60" arrivalSpeed="12.74" duration="64.00" routeLength="204.74" waitingTime="38.00" waitingCount="2" stopTime="0.00" timeLoss="47.58" rerouteNo="0" devices="vehroute_flow_8_phase1_S_uturn.1 tripinfo_flow_8_phase1_S_uturn.1" vType="truck" speedFactor="0.94" vaporized=""/>
    <tripinfo id="flow_13_phase1_W_straight.6" depart="81.00" departLane="S_in_0" departPos="18.52" departSpeed="1.56" departDelay="0.70" arrival="131.00" arrivalLane="N_out_0" arrivalPos="189.60" arrivalSpeed="13.20" duration="50.00" routeLength="381.48" waitingTime="10.00" waitingCount="1" stopTime="0.00" timeLoss="21.10" rerouteNo="0" devices="vehroute_flow_13_phase1_W_straight.6 tripinfo_flow_13_phase1_W_straight.6" vType="car" speedFactor="0.98" vaporized=""/>
    <tripinfo id="flow_7_phase1_S_right.2" depart="65.00" departLane="S_in_1" departPos="65.33" departSpeed="12.93" departDelay="0.01" arrival="132.00" arrivalLane="S_out_1" arrivalPos="189.60" arrivalSpeed="13.45" duration="67.00" routeLength="318.54" waitingTime="25.00" waitingCount="2" stopTime="0.00" timeLoss="43.64" rerouteNo="0" devices="vehroute_flow_7_phase1_S_right.2 tripinfo_flow_7_phase1_S_right.2" vType="moto" speedFactor="1.03" vaporized=""/>
    <tripinfo id="flow_6_phase1_S_left.2" depart="67.00" departLane="S_in_0" departPos="92.22" departSpeed="11.39" departDelay="0.10" arrival="136.00" arrivalLane="W_out_1" arrivalPos="189.60" arrivalSpeed="12.07" duration="69.00" routeLength="306.33" waitingTime="21.00" waitingCount="2" stopTime="0.00" timeLoss="42.98" rerouteNo="0" devices="vehroute_flow_6_phase1_S_left.2 tripinfo_flow_6_phase1_S_left.2" vType="truck" speedFactor="0.89" vaporized=""/>
    <tripinfo id="flow_5_phase1_S_straight.7" depart="93.00" departLane="S_in_0" departPos="36.12" departSpeed="5.85" departDelay="0.39" arrival="136.00" arrivalLane="N_out_0" arrivalPos="189.60" arrivalSpeed="11.97" duration="43.00" routeLength="363.88" waitingTime="2.00" waitingCount="1" stopTime="0.00" timeLoss="13.97" rerouteNo="0" devices="vehroute_flow_5_phase1_S_straight.7 tripinfo_flow_5_phase1_S_straight.7" vType="bus" speedFactor="0.90" vaporized=""/>
    <tripinfo id="flow_15_phase1_W_right.3" depart="99.00" departLane="W_in_1" departPos="16.13" departSpeed="9.42" departDelay="0.49" arrival="138.00" arrivalLane="S_out_0" arrivalPos="189.60" arrivalSpeed="15.97" duration="39.00" routeLength="372.10" waitingTime="8.00" waitingCount="1" stopTime="0.00" timeLoss="15.02" rerouteNo="0" devices="vehroute_flow_15_phase1_W_right.3 tripinfo_flow_15_phase1_W_right.3" vType="moto" speedFactor="1.17" vaporized=""/>
    <tripinfo id="flow_9_phase1_E_straight.4" depart="52.00" departLane="N_in_0" departPos="135.24" departSpeed="1.65" departDelay="0.49" arrival="140.00" arrivalLane="N_out_1" arrivalPos="189.60" arrivalSpeed="12.81" duration="88.00" routeLength="248.63" waitingTime="43.00" waitingCount="4" stopTime="0.00" timeLoss="67.96" rerouteNo="0" devices="vehroute_flow_9_phase1_E_straight.4 tripinfo_flow_9_phase1_E_straight.4" vType="bus" speedFactor="0.95" vaporized=""/>
    <tripinfo id="flow_1_phase1_N_straight.8" depart="109.00" departLane="E_in_0" departPos="157.03" departSpeed="10.29" departDelay="0.87" arrival="140.00" arrivalLane="E_out_1" arrivalPos="189.60" arrivalSpeed="12.51" duration="31.00" routeLength="226.84" waitingTime="7.00" waitingCount="1" stopTime="0.00" timeLoss="13.00" rerouteNo="0" devices="vehroute_flow_1_phase1_N_straight.8 tripinfo_flow_1_phase1_N_straight.8" vType="moto" speedFactor="0.97" vaporized=""/>