<?xml version="1.0" encoding="UTF-8"?>

<!-- generated on 2025-12-08 21:22:58 by Eclipse SUMO sumo Version 1.18.0
<configuration xmlns:xsi="http://www.w3.org/2001/XMLSchema-instance" xsi:noNamespaceSchemaLocation="http://sumo.dlr.de/xsd/sumoConfiguration.xsd">

    <input>
        <net-file value="/workspace/nets/60p2k/net.net.xml"/>
        <route-files value="/workspace/nets/60p2k/route_temp_244_130720908769792_63793894.rou.xml"/>
    </input>

    <output>
        <summary-output value="results/summary_ep_5.xml"/>
        <tripinfo-output value="results/tripinfo_ep_5.xml"/>
        <vehroute-output value="results/vehroute_ep_5.xml"/>
    </output>

    <time>
        <begin value="0"/>
    </time>

    <report>
        <verbose value="true"/>
        <no-step-log value="true"/>
    </report>

    <traci_server>
        <remote-port value="41057"/>
    </traci_server>

    <gui_only>
        <gui-settings-file value="/workspace/nets/60p2k/gui-settings.xml"/>
        <quit-on-end value="true"/>
    </gui_only>

</configuration>
-->

<tripinfos xmlns:xsi="http://www.w3.org/2001/XMLSchema-instance" xsi:noNamespaceSchemaLocation="http://sumo.dlr.de/xsd/tripinfo_file.xsd">
    <tripinfo id="flow_6_phase1_S_left.0" depart="0.00" departLane="N_in_1" departPos="166.01" departSpeed="0.74" departDelay="0.00" arrival="22.00" arrivalLane="S_out_1" arrivalPos="189.60" arrivalSpeed="11.64" duration="22.00" routeLength="233.99" waitingTime="0.00" waitingCount="0" stopTime="0.00" timeLoss="2.79" rerouteNo="0" devices="vehroute_flow_6_phase1_S_left.0 tripinfo_flow_6_phase1_S_left.0" vType="moto" speedFactor="0.88" vaporized=""/>
    <tripinfo id="flow_9_phase1_E_straight.0" depart="0.00" departLane="N_in_0" departPos="168.29" departSpeed="10.30" departDelay="0.00" arrival="22.00" arrivalLane="W_out_0" arrivalPos="189.60" arrivalSpeed="12.30" duration="22.00" routeLength="219.94" waitingTime="0.00" waitingCount="0" stopTime="0.00" timeLoss="3.14" rerouteNo="0" devices="vehroute_flow_9_phase1_E_straight.0 tripinfo_flow_9_phase1_E_straight.0" vType="truck" speedFactor="0.90" vaporized=""/>
    <tripinfo id="flow_5_phase1_S_straight.0" depart="0.00" departLane="S_in_1" departPos="107.37" departSpeed="7.21" departDelay="0.00" arrival="25.00" arrivalLane="N_out_1" arrivalPos="189.60" arrivalSpeed="14.98" duration="25.00" routeLength="292.63" waitingTime="0.00" waitingCount="0" stopTime="0.00" timeLoss="6.30" rerouteNo="0" devices="vehroute_flow_5_phase1_S_straight.0 tripinfo_flow_5_phase1_S_straight.0" vType="moto" speedFactor="1.15" vaporized=""/>
    <tripinfo id="flow_8_phase1_S_uturn.0" depart="0.00" departLane="S_in_0" departPos="120.11" departSpeed="4.48" departDelay="0.00" arrival="25.00" arrivalLane="S_out_1" arrivalPos="189.60" arrivalSpeed="13.96" duration="25.00" routeLength="263.76" waitingTime="0.00" waitingCount="0" stopTime="0.00" timeLoss="5.44" rerouteNo="0" devices="vehroute_flow_8_phase1_S_uturn.0 tripinfo_flow_8_phase1_S_uturn.0" vType="moto" speedFactor="1.05" vaporized=""/>
    <tripinfo id="flow_11_phase1_E_right.0" depart="0.00" departLane="S_in_1" departPos="144.95" departSpeed="4.02" departDelay="0.00" arrival="26.00" arrivalLane="E_out_0" arrivalPos="189.60" arrivalSpeed="12.72" duration="26.00" routeLength="243.28" waitingTime="0.00" waitingCount="0" stopTime="0.00" timeLoss="6.10" rerouteNo="0" devices="vehroute_flow_11_phase1_E_right.0 tripinfo_flow_11_phase1_E_right.0" vType="bus" speedFactor="0.96" vaporized=""/>
    <tripinfo id="flow_4_phase1_N_uturn.0" depart="0.00" departLane="N_in_1" departPos="127.60" departSpeed="0.08" departDelay="0.00" arrival="27.00" arrivalLane="W_out_0" arrivalPos="189.60" arrivalSpeed="12.32" duration="27.00" routeLength="260.63" waitingTime="0.00" waitingCount="0" stopTime="0.00" timeLoss="5.42" rerouteNo="0" devices="vehroute_flow_4_phase1_N_uturn.0 tripinfo_flow_4_phase1_N_uturn.0" vType="car" speedFactor="0.92" vaporized=""/>
    <tripinfo id="flow_16_phase1_W_uturn.0" depart="0.00" departLane="W_in_0" departPos="126.68" departSpeed="11.71" departDelay="0.00" arrival="35.00" arrivalLane="W_out_1" arrivalPos="189.60" arrivalSpeed="14.00" duration="35.00" routeLength="257.19" waitingTime="11.00" waitingCount="1" stopTime="0.00" timeLoss="16.58" rerouteNo="0" devices="vehroute_flow_16_phase1_W_uturn.0 tripinfo_flow_16_phase1_W_uturn.0" vType="moto" speedFactor="1.04" vaporized=""/>
    <tripinfo id="flow_2_phase1_N_left.0" depart="0.00" departLane="W_in_1" departPos="8.27" departSpeed="8.33" departDelay="0.00" arrival="36.00" arrivalLane="S_out_0" arrivalPos="189.60" arrivalSpeed="14.07" duration="36.00" routeLength="379.96" waitingTime="1.00" waitingCount="1" stopTime="0.00" timeLoss="8.10" rerouteNo="0" devices="vehroute_flow_2_phase1_N_left.0 tripinfo_flow_2_phase1_N_left.0" vType="moto" speedFactor="1.02" vaporized=""/>
    <tripinfo id="flow_12_phase1_E_uturn.0" depart="0.00" departLane="E_in_0" departPos="129.89" departSpeed="13.76" departDelay="0.00" arrival="36.00" arrivalLane="E_out_1" arrivalPos="189.60" arrivalSpeed="13.55" duration="36.00" routeLength="253.98" waitingTime="8.00" waitingCount="1" stopTime="0.00" timeLoss="16.86" rerouteNo="0" devices="vehroute_flow_12_phase1_E_uturn.0 tripinfo_flow_12_phase1_E_uturn.0" vType="moto" speedFactor="1.03" vaporized=""/>
    <tripinfo id="flow_14_phase1_W_left.0" depart="0.00" departLane="W_in_1" departPos="50.07" departSpeed="13.54" departDelay="0.00" arrival="37.00" arrivalLane="N_out_1" arrivalPos="189.60" arrivalSpeed="13.96" duration="37.00" routeLength="348.48" waitingTime="5.00" waitingCount="1" stopTime="0.00" timeLoss="11.55" rerouteNo="0" devices="vehroute_flow_14_phase1_W_left.0 tripinfo_flow_14_phase1_W_left.0" vType="moto" speedFactor="1.01" vaporized=""/>
    <tripinfo id="flow_13_phase1_W_straight.1" depart="14.00" departLane="W_in_1" departPos="121.65" departSpeed="2.86" departDelay="0.62" arrival="37.00" arrivalLane="E_out_1" arrivalPos="189.60" arrivalSpeed="14.57" duration="23.00" routeLength="278.35" waitingTime="0.00" waitingCount="0" stopTime="0.00" timeLoss="4.99" rerouteNo="0" devices="vehroute_flow_13_phase1_W_straight.1 tripinfo_flow_13_phase1_W_straight.1" vType="car" speedFactor="1.12" vaporized=""/>
    <tripinfo id="flow_1_phase1_N_straight.0" depart="0.00" departLane="E_in_0" departPos="8.62" departSpeed="8.51" departDelay="0.00" arrival="38.00" arrivalLane="N_out_0" arrivalPos="189.60" arrivalSpeed="11.40" duration="38.00" routeLength="379.61" waitingTime="0.00" waitingCount="0" stopTime="0.00" timeLoss="4.96" rerouteNo="0" devices="vehroute_flow_1_phase1_N_straight.0 tripinfo_flow_1_phase1_N_straight.0" vType="bus" speedFactor="0.86" vaporized=""/>
    <tripinfo id="flow_13_phase1_W_straight.0" depart="0.00" departLane="W_in_0" departPos="23.77" departSpeed="1.48" departDelay="0.00" arrival="41.00" arrivalLane="E_out_0" arrivalPos="189.60" arrivalSpeed="11.24" duration="41.00" routeLength="376.23" waitingTime="0.00" waitingCount="0" stopTime="0.00" timeLoss="7.94" rerouteNo="0" devices="vehroute_flow_13_phase1_W_straight.0 tripinfo_flow_13_phase1_W_straight.0" vType="container" speedFactor="0.82" vaporized=""/>
    <tripinfo id="flow_3_phase1_N_right.0" depart="0.00" departLane="E_in_0" departPos="103.38" departSpeed="3.75" departDelay="0.00" arrival="42.00" arrivalLane="E_out_1" arrivalPos="189.60" arrivalSpeed="14.61" duration="42.00" routeLength="280.49" waitingTime="9.00" waitingCount="2" stopTime="0.00" timeLoss="22.24" rerouteNo="0" devices="vehroute_flow_3_phase1_N_right.0 tripinfo_flow_3_phase1_N_right.0" vType="car" speedFactor="1.09" vaporized=""/>
    <tripinfo id="flow_1_phase1_N_straight.1" depart="14.00" departLane="E_in_1" departPos="58.36" departSpeed="11.64" departDelay="0.48" arrival="46.00" arrivalLane="N_out_0" arrivalPos="189.60" arrivalSpeed="11.99" duration="32.00" routeLength="329.87" waitingTime="0.00" waitingCount="0" stopTime="0.00" timeLoss="3.32" rerouteNo="0" devices="vehroute_flow_1_phase1_N_straight.1 tripinfo_flow_1_phase1_N_straight.1" vType="moto" speedFactor="0.87" vaporized=""/>
    <tripinfo id="flow_9_phase1_E_straight.1" depart="13.00" departLane="N_in_0" departPos="131.13" departSpeed="9.54" departDelay="0.12" arrival="47.00" arrivalLane="W_out_0" arrivalPos="189.60" arrivalSpeed="15.22" duration="34.00" routeLength="257.10" waitingTime="9.00" waitingCount="1" stopTime="0.00" timeLoss="17.02" rerouteNo="0" devices="vehroute_flow_9_phase1_E_straight.1 tripinfo_flow_9_phase1_E_straight.1" vType="moto" speedFactor="1.16" vaporized=""/>
    <tripinfo id="flow_5_phase1_S_straight.1" depart="14.00" departLane="S_in_1" departPos="31.93" departSpeed="9.28" departDelay="0.77" arrival="48.00" arrivalLane="N_out_1" arrivalPos="189.60" arrivalSpeed="15.28" duration="34.00" routeLength="368.07" waitingTime="3.00" waitingCount="1" stopTime="0.00" timeLoss="10.37" rerouteNo="0" devices="vehroute_flow_5_phase1_S_straight.1 tripinfo_flow_5_phase1_S_straight.1" vType="moto" speedFactor="1.19" vaporized=""/>
    <tripinfo id="flow_6_phase1_S_left.1" depart="34.00" departLane="N_in_1" departPos="110.92" departSpeed="11.99" departDelay="0.55" arrival="55.00" arrivalLane="S_out_1" arrivalPos="189.60" arrivalSpeed="14.34" duration="21.00" routeLength="289.08" waitingTime="0.00" waitingCount="0" stopTime="0.00" timeLoss="0.85" rerouteNo="0" devices="vehroute_flow_6_phase1_S_left.1 tripinfo_flow_6_phase1_S_left.1" vType="moto" speedFactor="1.05" vaporized=""/>
    <tripinfo id="flow_9_phase1_E_straight.2" depart="26.00" departLane="N_in_1" departPos="52.87" departSpeed="0.38" departDelay="0.25" arrival="57.00" arrivalLane="W_out_0" arrivalPos="189.60" arrivalSpeed="13.59" duration="31.00" routeLength="335.36" waitingTime="0.00" waitingCount="0" stopTime="0.00" timeLoss="5.56" rerouteNo="0" devices="vehroute_flow_9_phase1_E_straight.2 tripinfo_flow_9_phase1_E_straight.2" vType="moto" speedFactor="0.99" vaporized=""/>
    <tripinfo id="flow_11_phase1_E_right.1" depart="33.00" departLane="S_in_1" departPos="128.68" departSpeed="3.06" departDelay="0.51" arrival="57.00" arrivalLane="E_out_0" arrivalPos="189.60" arrivalSpeed="13.80" duration="24.00" routeLength="259.55" waitingTime="0.00" waitingCount="0" stopTime="0.00" timeLoss="4.46" rerouteNo="0" devices="vehroute_flow_11_phase1_E_right.1 tripinfo_flow_11_phase1_E_right.1" vType="moto" speedFactor="1.04" vaporized=""/>
    <tripinfo id="flow_7_phase1_S_right.0" depart="0.00" departLane="S_in_0" departPos="8.76" departSpeed="8.07" departDelay="0.00" arrival="58.00" arrivalLane="N_out_0" arrivalPos="189.60" arrivalSpeed="11.60" duration="58.00" routeLength="391.24" waitingTime="12.00" waitingCount="1" stopTime="0.00" timeLoss="24.00" rerouteNo="0" devices="vehroute_flow_7_phase1_S_right.0 tripinfo_flow_7_phase1_S_right.0" vType="container" speedFactor="0.85" vaporized=""/>
    <tripinfo id="flow_5_phase1_S_straight.2" depart="27.00" departLane="S_in_1" departPos="12.70" departSpeed="12.41" departDelay="0.54" arrival="58.00" arrivalLane="N_out_1" arrivalPos="189.60" arrivalSpeed="12.39" duration="31.00" routeLength="387.30" waitingTime="0.00" waitingCount="0" stopTime="0.00" timeLoss="1.53" rerouteNo="0" devices="vehroute_flow_5_phase1_S_straight.2 tripinfo_flow_5_phase1_S_straight.2" vType="moto" speedFactor="0.96" vaporized=""/>
    <tripinfo id="flow_1_phase1_N_straight.2" depart="28.00" departLane="E_in_1" departPos="107.53" departSpeed="1.11" departDelay="0.97" arrival="62.00" arrivalLane="N_out_0" arrivalPos="189.60" arrivalSpeed="12.64" duration="34.00" routeLength="280.70" waitingTime="4.00" waitingCount="1" stopTime="0.00" timeLoss="11.36" rerouteNo="0" devices="vehroute_flow_1_phase1_N_straight.2 tripinfo_flow_1_phase1_N_straight.2" vType="moto" speedFactor="0.93" vaporized=""/>
    <tripinfo id="flow_1_phase1_N_straight.3" depart="41.00" departLane="E_in_0" departPos="125.48" departSpeed="7.46" departDelay="0.45" arrival="64.00" arrivalLane="N_out_0" arrivalPos="189.60" arrivalSpeed="15.52" duration="23.00" routeLength="262.75" waitingTime="0.00" waitingCount="0" stopTime="0.00" timeLoss="4.68" rerouteNo="0" devices="vehroute_flow_1_phase1_N_straight.3 tripinfo_flow_1_phase1_N_straight.3" vType="moto" speedFactor="1.20" vaporized=""/>
    <tripinfo id="flow_2_phase1_N_left.1" depart="33.00" departLane="W_in_0" departPos="8.88" departSpeed="2.82" departDelay="0.32" arrival="66.00" arrivalLane="S_out_0" arrivalPos="189.60" arrivalSpeed="15.35" duration="33.00" routeLength="379.35" waitingTime="0.00" waitingCount="0" stopTime="0.00" timeLoss="7.32" rerouteNo="0" devices="vehroute_flow_2_phase1_N_left.1 tripinfo_flow_2_phase1_N_left.1" vType="moto" speedFactor="1.12" vaporized=""/>
    <tripinfo id="flow_13_phase1_W_straight.2" depart="27.00" departLane="W_in_1" departPos="59.51" departSpeed="13.32" departDelay="0.23" arrival="67.00" arrivalLane="E_out_0" arrivalPos="189.60" arrivalSpeed="13.26" duration="40.00" routeLength="340.49" waitingTime="1.00" waitingCount="1" stopTime="0.00" timeLoss="14.52" rerouteNo="0" devices="vehroute_flow_13_phase1_W_straight.2 tripinfo_flow_13_phase1_W_straight.2" vType="bus" speedFactor="0.97" vaporized=""/>
    <tripinfo id="flow_14_phase1_W_left.1" depart="35.00" departLane="W_in_0" departPos="86.42" departSpeed="9.04" departDelay="0.53" arrival="67.00" arrivalLane="N_out_1" arrivalPos="189.60" arrivalSpeed="12.61" duration="32.00" routeLength="312.13" waitingTime="0.00" waitingCount="0" stopTime="0.00" timeLoss="6.35" rerouteNo="0" devices="vehroute_flow_14_phase1_W_left.1 tripinfo_flow_14_phase1_W_left.1" vType="container" speedFactor="0.91" vaporized=""/>
    <tripinfo id="flow_15_phase1_W_right.0" depart="0.00" departLane="E_in_1" departPos="108.38" departSpeed="1.98" departDelay="0.00" arrival="75.00" arrivalLane="S_out_1" arrivalPos="189.60" arrivalSpeed="11.47" duration="75.00" routeLength="290.17" waitingTime="28.00" waitingCount="4" stopTime="0.00" timeLoss="48.68" rerouteNo="0" devices="vehroute_flow_15_phase1_W_right.0 tripinfo_flow_15_phase1_W_right.0" vType="moto" speedFactor="0.85" vaporized=""/>
    <tripinfo id="flow_10_phase1_E_left.0" depart="0.00" departLane="E_in_0" departPos="44.88" departSpeed="7.69" departDelay="0.00" arrival="77.00" arrivalLane="S_out_1" arrivalPos="189.60" arrivalSpeed="13.59" duration="77.00" routeLength="353.67" waitingTime="26.00" waitingCount="4" stopTime="0.00" timeLoss="50.68" rerouteNo="0" devices="vehroute_flow_10_phase1_E_left.0 tripinfo_flow_10_phase1_E_left.0" vType="truck" speedFactor="1.02" vaporized=""/>
    <tripinfo id="flow_5_phase1_S_straight.3" depart="40.00" departLane="S_in_0" departPos="132.62" departSpeed="5.13" departDelay="0.31" arrival="77.00" arrivalLane="N_out_0" arrivalPos="189.60" arrivalSpeed="14.42" duration="37.00" routeLength="267.38" waitingTime="8.00" waitingCount="1" stopTime="0.00" timeLoss="18.37" rerouteNo="0" devices="vehroute_flow_5_phase1_S_straight.3 tripinfo_flow_5_phase1_S_straight.3" vType="moto" speedFactor="1.08" vaporized=""/>
    <tripinfo id="flow_9_phase1_E_straight.3" depart="39.00" departLane="N_in_0" departPos="56.18" departSpeed="6.79" departDelay="0.37" arrival="81.00" arrivalLane="W_out_0" arrivalPos="189.60" arrivalSpeed="11.69" duration="42.00" routeLength="332.05" waitingTime="2.00" waitingCount="1" stopTime="0.00" timeLoss="12.35" rerouteNo="0" devices="vehroute_flow_9_phase1_E_straight.3 tripinfo_flow_9_phase1_E_straight.3" vType="bus" speedFactor="0.85" vaporized=""/>
    <tripinfo id="flow_9_phase1_E_straight.4" depart="52.00" departLane="N_in_0" departPos="167.23" departSpeed="1.87" departDelay="0.49" arrival="83.00" arrivalLane="W_out_0" arrivalPos="189.60" arrivalSpeed="13.15" duration="31.00" routeLength="221.00" waitingTime="2.00" waitingCount="1" stopTime="0.00" timeLoss="13.30" rerouteNo="0" devices="vehroute_flow_9_phase1_E_straight.4 tripinfo_flow_9_phase1_E_straight.4" vType="bus" speedFactor="0.95" vaporized=""/>
    <tripinfo id="flow_7_phase1_S_right.1" depart="33.00" departLane="S_in_1" departPos="66.71" departSpeed="7.87" departDelay="0.51" arrival="87.00" arrivalLane="N_out_0" arrivalPos="189.60" arrivalSpeed="10.39" duration="54.00" routeLength="333.29" waitingTime="9.00" waitingCount="1" stopTime="0.00" timeLoss="23.11" rerouteNo="0" devices="vehroute_flow_7_phase1_S_right.1 tripinfo_flow_7_phase1_S_right.1" vType="container" speedFactor="0.78" vaporized=""/>
    <tripinfo id="flow_13_phase1_W_straight.3" depart="41.00" departLane="W_in_1" departPos="23.57" departSpeed="4.10" departDelay="0.85" arrival="88.00" arrivalLane="E_out_0" arrivalPos="189.60" arrivalSpeed="13.59" duration="47.00" routeLength="376.43" waitingTime="11.00" waitingCount="1" stopTime="0.00" timeLoss="20.31" rerouteNo="0" devices="vehroute_flow_13_phase1_W_straight.3 tripinfo_flow_13_phase1_W_straight.3" vType="car" speedFactor="1.05" vaporized=""/>
    <tripinfo id="flow_13_phase1_W_straight.5" depart="67.00" departLane="W_in_1" departPos="177.50" departSpeed="5.05" departDelay="0.08" arrival="89.00" arrivalLane="E_out_1" arrivalPos="189.60" arrivalSpeed="14.66" duration="22.00" routeLength="222.50" waitingTime="1.00" waitingCount="1" stopTime="0.00" timeLoss="7.38" rerouteNo="0" devices="vehroute_flow_13_phase1_W_straight.5 tripinfo_flow_13_phase1_W_straight.5" vType="moto" speedFactor="1.14" vaporized=""/>
    <tripinfo id="flow_1_phase1_N_straight.4" depart="55.00" departLane="E_in_1" departPos="65.33" departSpeed="1.96" departDelay="0.94" arrival="90.00" arrivalLane="N_out_0" arrivalPos="189.60" arrivalSpeed="12.12" duration="35.00" routeLength="322.90" waitingTime="0.00" waitingCount="0" stopTime="0.00" timeLoss="8.35" rerouteNo="0" devices="vehroute_flow_1_phase1_N_straight.4 tripinfo_flow_1_phase1_N_straight.4" vType="truck" speedFactor="0.92" vaporized=""/>
    <tripinfo id="flow_2_phase1_N_left.2" depart="66.00" departLane="W_in_0" departPos="155.68" departSpeed="9.79" departDelay="0.64" arrival="91.00" arrivalLane="S_out_0" arrivalPos="189.60" arrivalSpeed="15.21" duration="25.00" routeLength="232.55" waitingTime="0.00" waitingCount="0" stopTime="0.00" timeLoss="8.61" rerouteNo="0" devices="vehroute_flow_2_phase1_N_left.2 tripinfo_flow_2_phase1_N_left.2" vType="emergency" speedFactor="1.10" vaporized=""/>
    <tripinfo id="flow_16_phase1_W_uturn.1" depart="67.00" departLane="W_in_1" departPos="159.96" departSpeed="6.69" departDelay="0.80" arrival="92.00" arrivalLane="W_out_1" arrivalPos="189.60" arrivalSpeed="13.85" duration="25.00" routeLength="223.91" waitingTime="0.00" waitingCount="0" stopTime="0.00" timeLoss="8.14" rerouteNo="0" devices="vehroute_flow_16_phase1_W_uturn.1 tripinfo_flow_16_phase1_W_uturn.1" vType="moto" speedFactor="1.04" vaporized=""/>
    <tripinfo id="flow_13_phase1_W_straight.4" depart="54.00" departLane="W_in_0" departPos="185.47" departSpeed="3.56" departDelay="0.46" arrival="94.00" arrivalLane="E_out_0" arrivalPos="189.60" arrivalSpeed="11.40" duration="40.00" routeLength="214.53" waitingTime="12.00" waitingCount="1" stopTime="0.00" timeLoss="21.41" rerouteNo="0" devices="vehroute_flow_13_phase1_W_straight.4 tripinfo_flow_13_phase1_W_straight.4" vType="bus" speedFactor="0.87" vaporized=""/>
    <tripinfo id="flow_15_phase1_W_right.1" depart="33.00" departLane="E_in_0" departPos="73.90" departSpeed="9.22" departDelay="0.16" arrival="95.00" arrivalLane="S_out_1" arrivalPos="189.60" arrivalSpeed="14.63" duration="62.00" routeLength="324.65" waitingTime="20.00" waitingCount="4" stopTime="0.00" timeLoss="38.96" rerouteNo="0" devices="vehroute_flow_15_phase1_W_right.1 tripinfo_flow_15_phase1_W_right.1" vType="moto" speedFactor="1.08" vaporized=""/>
    <tripinfo id="flow_3_phase1_N_right.1" depart="35.00" departLane="E_in_1" departPos="93.41" departSpeed="9.30" departDelay="0.82" arrival="97.00" arrivalLane="E_out_1" arrivalPos="189.60" arrivalSpeed="11.68" duration="62.00" routeLength="290.46" waitingTime="16.00" waitingCount="4" stopTime="0.00" timeLoss="36.37" rerouteNo="0" devices="vehroute_flow_3_phase1_N_right.1 tripinfo_flow_3_phase1_N_right.1" vType="moto" speedFactor="0.88" vaporized=""/>
    <tripinfo id="flow_14_phase1_W_left.2" depart="69.00" departLane="W_in_1" departPos="109.89" departSpeed="1.97" departDelay="0.06" arrival="97.00" arrivalLane="N_out_1" arrivalPos="189.60" arrivalSpeed="11.20" duration="28.00" routeLength="288.66" waitingTime="0.00" waitingCount="0" stopTime="0.00" timeLoss="3.86" rerouteNo="0" devices="vehroute_flow_14_phase1_W_left.2 tripinfo_flow_14_phase1_W_left.2" vType="car" speedFactor="0.90" vaporized=""/>
    <tripinfo id="flow_9_phase1_E_straight.5" depart="65.00" departLane="N_in_1" departPos="129.09" departSpeed="5.26" departDelay="0.62" arrival="101.00" arrivalLane="W_out_0" arrivalPos="189.60" arrivalSpeed="13.61" duration="36.00" routeLength="259.14" waitingTime="9.00" waitingCount="1" stopTime="0.00" timeLoss="16.08" rerouteNo="0" devices="vehroute_flow_9_phase1_E_straight.5 tripinfo_flow_9_phase1_E_straight.5" vType="moto" speedFactor="1.00" vaporized=""/>
    <tripinfo id="flow_5_phase1_S_straight.5" depart="67.00" departLane="S_in_1" departPos="174.17" departSpeed="9.40" departDelay="0.85" arrival="101.00" arrivalLane="N_out_1" arrivalPos="189.60" arrivalSpeed="13.59" duration="34.00" routeLength="225.83" waitingTime="10.00" waitingCount="1" stopTime="0.00" timeLoss="18.01" rerouteNo="0" devices="vehroute_flow_5_phase1_S_straight.5 tripinfo_flow_5_phase1_S_straight.5" vType="moto" speedFactor="1.03" vaporized=""/>
    <tripinfo id="flow_7_phase1_S_right.2" depart="65.00" departLane="S_in_1" departPos="111.69" departSpeed="6.16" departDelay="0.01" arrival="103.00" arrivalLane="N_out_1" arrivalPos="189.60" arrivalSpeed="13.24" duration="38.00" routeLength="288.31" waitingTime="10.00" waitingCount="1" stopTime="0.00" timeLoss="17.15" rerouteNo="0" devices="vehroute_flow_7_phase1_S_right.2 tripinfo_flow_7_phase1_S_right.2" vType="moto" speedFactor="1.03" vaporized=""/>
    <tripinfo id="flow_4_phase1_N_uturn.1" depart="67.00" departLane="N_in_0" departPos="64.25" departSpeed="6.13" departDelay="0.96" arrival="104.00" arrivalLane="W_out_0" arrivalPos="189.60" arrivalSpeed="12.95" duration="37.00" routeLength="323.98" waitingTime="1.00" waitingCount="1" stopTime="0.00" timeLoss="10.36" rerouteNo="0" devices="vehroute_flow_4_phase1_N_uturn.1 tripinfo_flow_4_phase1_N_uturn.1" vType="moto" speedFactor="0.94" vaporized=""/>
    <tripinfo id="flow_6_phase1_S_left.2" depart="67.00" departLane="N_in_1" departPos="172.37" departSpeed="6.03" departDelay="0.10" arrival="106.00" arrivalLane="S_out_0" arrivalPos="189.60" arrivalSpeed="12.30" duration="39.00" routeLength="227.63" waitingTime="11.00" waitingCount="1" stopTime="0.00" timeLoss="20.03" rerouteNo="0" devices="vehroute_flow_6_phase1_S_left.2 tripinfo_flow_6_phase1_S_left.2" vType="truck" speedFactor="0.89" vaporized=""/>
    <tripinfo id="flow_11_phase1_E_right.2" depart="65.00" departLane="S_in_1" departPos="19.51" departSpeed="9.11" departDelay="0.02" arrival="107.00" arrivalLane="E_out_0" arrivalPos="189.60" arrivalSpeed="15.14" duration="42.00" routeLength="368.72" waitingTime="5.00" waitingCount="1" stopTime="0.00" timeLoss="17.30" rerouteNo="0" devices="vehroute_flow_11_phase1_E_right.2 tripinfo_flow_11_phase1_E_right.2" vType="moto" speedFactor="1.14" vaporized=""/>
    <tripinfo id="flow_9_phase1_E_straight.6" depart="78.00" departLane="N_in_1" departPos="21.74" departSpeed="11.20" departDelay="0.74" arrival="108.00" arrivalLane="W_out_0" arrivalPos="189.60" arrivalSpeed="13.77" duration="30.00" routeLength="366.49" waitingTime="0.00" waitingCount="0" stopTime="0.00" timeLoss="3.25" rerouteNo="0" devices="vehroute_flow_9_phase1_E_straight.6 tripinfo_flow_9_phase1_E_straight.6" vType="moto" speedFactor="1.02" vaporized=""/>
    <tripinfo id="flow_8_phase1_S_uturn.1" depart="66.00" departLane="S_in_1" departPos="2.77" departSpeed="7.17" departDelay="0.07" arrival="109.00" arrivalLane="S_out_1" arrivalPos="189.60" arrivalSpeed="13.04" duration="43.00" routeLength="381.10" waitingTime="0.00" waitingCount="0" stopTime="0.00" timeLoss="13.12" rerouteNo="0" devices="vehroute_flow_8_phase1_S_uturn.1 tripinfo_flow_8_phase1_S_uturn.1" vType="truck" speedFactor="0.94" vaporized=""/>
    <tripinfo id="flow_5_phase1_S_straight.4" depart="53.00" departLane="S_in_0" departPos="8.08" departSpeed="6.48" departDelay="0.08" arrival="110.00" arrivalLane="N_out_0" arrivalPos="189.60" arrivalSpeed="12.99" duration="57.00" routeLength="391.92" waitingTime="10.00" waitingCount="1" stopTime="0.00" timeLoss="27.20" rerouteNo="0" devices="vehroute_flow_5_phase1_S_straight.4 tripinfo_flow_5_phase1_S_straight.4" vType="container" speedFactor="0.97" vaporized=""/>
    <tripinfo id="flow_1_phase1_N_straight.5" depart="68.00" departLane="E_in_1" departPos="29.07" departSpeed="2.60" departDelay="0.42" arrival="115.00" arrivalLane="N_out_0" arrivalPos="189.60" arrivalSpeed="11.90" duration="47.00" routeLength="359.16" waitingTime="10.00" waitingCount="1" stopTime="0.00" timeLoss="17.38" rerouteNo="0" devices="vehroute_flow_1_phase1_N_straight.5 tripinfo_flow_1_phase1_N_straight.5" vType="moto" speedFactor="0.90" vaporized=""/>
    <tripinfo id="flow_13_phase1_W_straight.6" depart="81.00" departLane="W_in_0" departPos="60.83" departSpeed="12.47" departDelay="0.70" arrival="115.00" arrivalLane="E_out_0" arrivalPos="189.60" arrivalSpeed="12.82" duration="34.00" routeLength="339.17" waitingTime="1.00" waitingCount="1" stopTime="0.00" timeLoss="8.81" rerouteNo="0" devices="vehroute_flow_13_phase1_W_straight.6 tripinfo_flow_13_phase1_W_straight.6" vType="car" speedFactor="0.98" vaporized=""/>
    <tripinfo id="flow_1_phase1_N_straight.6" depart="82.00" departLane="E_in_1" departPos="88.32" departSpeed="11.59" departDelay="0.90" arrival="116.00" arrivalLane="N_out_0" arrivalPos="189.60" arrivalSpeed="13.25" duration="34.00" routeLength="299.91" waitingTime="4.00" waitingCount="1" stopTime="0.00" timeLoss="11.40" rerouteNo="0" devices="vehroute_flow_1_phase1_N_straight.6 tripinfo_flow_1_phase1_N_straight.6" vType="car" speedFactor="0.98" vaporized=""/>
    <tripinfo id="flow_1_phase1_N_straight.7" depart="95.00" departLane="E_in_1" departPos="142.12" departSpeed="0.51" departDelay="0.39" arrival="118.00" arrivalLane="N_out_0" arrivalPos="189.60" arrivalSpeed="14.72" duration="23.00" routeLength="246.11" waitingTime="0.00" waitingCount="0" stopTime="0.00" timeLoss="5.60" rerouteNo="0" devices="vehroute_flow_1_phase1_N_straight.7 tripinfo_flow_1_phase1_N_straight.7" vType="moto" speedFactor="1.06" vaporized=""/>
    <tripinfo id="flow_12_phase1_E_uturn.1" depart="66.00" departLane="E_in_0" departPos="91.52" departSpeed="11.74" departDelay="0.19" arrival="123.00" arrivalLane="E_out_1" arrivalPos="189.60" arrivalSpeed="12.66" duration="57.00" routeLength="292.35" waitingTime="13.00" waitingCount="1" stopTime="0.00" timeLoss="33.54" rerouteNo="0" devices="vehroute_flow_12_phase1_E_uturn.1 tripinfo_flow_12_phase1_E_uturn.1" vType="moto" speedFactor="0.95" vaporized=""/>
    <tripinfo id="flow_2_phase1_N_left.3" depart="99.00" departLane="W_in_0" departPos="150.32" departSpeed="5.31" departDelay="0.96" arrival="123.00" arrivalLane="S_out_0" arrivalPos="189.60" arrivalSpeed="12.14" duration="24.00" routeLength="237.91" waitingTime="0.00" waitingCount="0" stopTime="0.00" timeLoss="3.11" rerouteNo="0" devices="vehroute_flow_2_phase1_N_left.3 tripinfo_flow_2_phase1_N_left.3" vType="moto" speedFactor="0.89" vaporized=""/>
    <tripinfo id="flow_10_phase1_E_left.1" depart="34.00" departLane="E_in_1" departPos="57.40" departSpeed="3.89" departDelay="0.50" arrival="125.00" arrivalLane="S_out_1" arrivalPos="189.60" arrivalSpeed="9.92" duration="91.00" routeLength="341.15" waitingTime="25.00" waitingCount="4" stopTime="0.00" timeLoss="57.75" rerouteNo="0" devices="vehroute_flow_10_phase1_E_left.1 tripinfo_flow_10_phase1_E_left.1" vType="truck" speedFactor="0.77" vaporized=""/>
    <tripinfo id="flow_5_phase1_S_straight.6" depart="80.00" departLane="S_in_0" departPos="43.18" departSpeed="3.45" departDelay="0.62" arrival="126.00" arrivalLane="N_out_0" arrivalPos="189.60" arrivalSpeed="14.43" duration="46.00" routeLength="356.82" waitingTime="14.00" waitingCount="1" stopTime="0.00" timeLoss="22.31" rerouteNo="0" devices="vehroute_flow_5_phase1_S_straight.6 tripinfo_flow_5_phase1_S_straight.6" vType="moto" speedFactor="1.10" vaporized=""/>
    <tripinfo id="flow_9_phase1_E_straight.7" depart="91.00" departLane="N_in_0" departPos="178.36" departSpeed="3.34" departDelay="0.86" arrival="126.00" arrivalLane="W_out_0" arrivalPos="189.60" arrivalSpeed="13.36" duration="35.00" routeLength="209.87" waitingTime="13.00" waitingCount="1" stopTime="0.00" timeLoss="19.36" rerouteNo="0" devices="vehroute_flow_9_phase1_E_straight.7 tripinfo_flow_9_phase1_E_straight.7" vType="moto" speedFactor="1.01" vaporized=""/>
    <tripinfo id="flow_6_phase1_S_left.3" depart="101.00" departLane="N_in_1" departPos="20.79" departSpeed="6.02" departDelay="0.64" arrival="129.00" arrivalLane="S_out_1" arrivalPos="189.60" arrivalSpeed="14.58" duration="28.00" routeLength="379.21" waitingTime="0.00" waitingCount="0" stopTime="0.00" timeLoss="2.22" rerouteNo="0" devices="vehroute_flow_6_phase1_S_left.3 tripinfo_flow_6_phase1_S_left.3" vType="car" speedFactor="1.10" vaporized=""/>
    <tripinfo id="flow_9_phase1_E_straight.8" depart="104.00" departLane="N_in_0" departPos="173.60" departSpeed="2.90" departDelay="0.98" arrival="129.00" arrivalLane="W_out_0" arrivalPos="189.60" arrivalSpeed="12.73" duration="25.00" routeLength="214.63" waitingTime="0.00" waitingCount="0" stopTime="0.00" timeLoss="7.26" rerouteNo="0" devices="vehroute_flow_9_phase1_E_straight.8 tripinfo_flow_9_phase1_E_straight.8" vType="moto" speedFactor="0.94" vaporized=""/>