<?xml version="1.0" encoding="UTF-8"?>

<!-- generated on 2025-12-08 21:26:11 by Eclipse SUMO sumo Version 1.18.0
<configuration xmlns:xsi="http://www.w3.org/2001/XMLSchema-instance" xsi:noNamespaceSchemaLocation="http://sumo.dlr.de/xsd/sumoConfiguration.xsd">

    <input>
        <net-file value="/workspace/nets/60p2k/net.net.xml"/>
        <route-files value="/workspace/nets/60p2k/route_temp_244_130720908769792_63793894.rou.xml"/>
    </input>

    <output>
        <summary-output value="results/summary_ep_12.xml"/>
        <tripinfo-output value="results/tripinfo_ep_12.xml"/>
        <vehroute-output value="results/vehroute_ep_12.xml"/>
    </output>

    <time>
        <begin value="0"/>
    </time>

    <report>
        <verbose value="true"/>
        <no-step-log value="true"/>
    </report>

    <traci_server>
        <remote-port value="39753"/>
    </traci_server>

    <gui_only>
        <gui-settings-file value="/workspace/nets/60p2k/gui-settings.xml"/>
        <quit-on-end value="true"/>
    </gui_only>

</configuration>
-->

<tripinfos xmlns:xsi="http://www.w3.org/2001/XMLSchema-instance" xsi:noNamespaceSchemaLocation="http://sumo.dlr.de/xsd/tripinfo_file.xsd">
    <tripinfo id="flow_8_phase1_S_uturn.0" depart="0.00" departLane="S_in_0" departPos="120.11" departSpeed="4.48" departDelay="0.00" arrival="24.00" arrivalLane="S_out_1" arrivalPos="189.60" arrivalSpeed="13.35" duration="24.00" routeLength="263.76" waitingTime="0.00" waitingCount="0" stopTime="0.00" timeLoss="4.99" rerouteNo="0" devices="vehroute_flow_8_phase1_S_uturn.0 tripinfo_flow_8_phase1_S_uturn.0" vType="moto" speedFactor="1.05" vaporized=""/>
    <tripinfo id="flow_5_phase1_S_straight.0" depart="0.00" departLane="S_in_1" departPos="107.37" departSpeed="7.21" departDelay="0.00" arrival="25.00" arrivalLane="N_out_1" arrivalPos="189.60" arrivalSpeed="15.67" duration="25.00" routeLength="292.63" waitingTime="0.00" waitingCount="0" stopTime="0.00" timeLoss="5.93" rerouteNo="0" devices="vehroute_flow_5_phase1_S_straight.0 tripinfo_flow_5_phase1_S_straight.0" vType="moto" speedFactor="1.15" vaporized=""/>
    <tripinfo id="flow_4_phase1_N_uturn.0" depart="0.00" departLane="N_in_1" departPos="127.60" departSpeed="0.08" departDelay="0.00" arrival="31.00" arrivalLane="N_out_1" arrivalPos="189.60" arrivalSpeed="12.70" duration="31.00" routeLength="256.27" waitingTime="1.00" waitingCount="1" stopTime="0.00" timeLoss="9.64" rerouteNo="0" devices="vehroute_flow_4_phase1_N_uturn.0 tripinfo_flow_4_phase1_N_uturn.0" vType="car" speedFactor="0.92" vaporized=""/>
    <tripinfo id="flow_16_phase1_W_uturn.0" depart="0.00" departLane="W_in_0" departPos="126.68" departSpeed="11.71" departDelay="0.00" arrival="37.00" arrivalLane="W_out_1" arrivalPos="189.60" arrivalSpeed="14.00" duration="37.00" routeLength="257.19" waitingTime="6.00" waitingCount="1" stopTime="0.00" timeLoss="18.34" rerouteNo="0" devices="vehroute_flow_16_phase1_W_uturn.0 tripinfo_flow_16_phase1_W_uturn.0" vType="moto" speedFactor="1.04" vaporized=""/>
    <tripinfo id="flow_3_phase1_N_right.0" depart="0.00" departLane="E_in_0" departPos="103.38" departSpeed="3.75" departDelay="0.00" arrival="38.00" arrivalLane="N_out_0" arrivalPos="189.60" arrivalSpeed="15.06" duration="38.00" routeLength="284.85" waitingTime="10.00" waitingCount="1" stopTime="0.00" timeLoss="18.33" rerouteNo="0" devices="vehroute_flow_3_phase1_N_right.0 tripinfo_flow_3_phase1_N_right.0" vType="car" speedFactor="1.09" vaporized=""/>
    <tripinfo id="flow_6_phase1_S_left.0" depart="0.00" departLane="W_in_1" departPos="166.01" departSpeed="0.74" departDelay="0.00" arrival="38.00" arrivalLane="E_out_0" arrivalPos="189.60" arrivalSpeed="11.74" duration="38.00" routeLength="233.99" waitingTime="10.00" waitingCount="1" stopTime="0.00" timeLoss="18.19" rerouteNo="0" devices="vehroute_flow_6_phase1_S_left.0 tripinfo_flow_6_phase1_S_left.0" vType="moto" speedFactor="0.88" vaporized=""/>
    <tripinfo id="flow_12_phase1_E_uturn.0" depart="0.00" departLane="E_in_0" departPos="129.89" departSpeed="13.76" departDelay="0.00" arrival="38.00" arrivalLane="E_out_1" arrivalPos="189.60" arrivalSpeed="14.22" duration="38.00" routeLength="253.98" waitingTime="10.00" waitingCount="1" stopTime="0.00" timeLoss="18.85" rerouteNo="0" devices="vehroute_flow_12_phase1_E_uturn.0 tripinfo_flow_12_phase1_E_uturn.0" vType="moto" speedFactor="1.03" vaporized=""/>
    <tripinfo id="flow_11_phase1_E_right.0" depart="0.00" departLane="W_in_1" departPos="144.95" departSpeed="4.02" departDelay="0.00" arrival="40.00" arrivalLane="S_out_0" arrivalPos="189.60" arrivalSpeed="13.15" duration="40.00" routeLength="243.28" waitingTime="8.00" waitingCount="1" stopTime="0.00" timeLoss="20.82" rerouteNo="0" devices="vehroute_flow_11_phase1_E_right.0 tripinfo_flow_11_phase1_E_right.0" vType="bus" speedFactor="0.96" vaporized=""/>
    <tripinfo id="flow_9_phase1_E_straight.0" depart="0.00" departLane="E_in_0" departPos="168.29" departSpeed="9.83" departDelay="0.00" arrival="41.00" arrivalLane="W_out_0" arrivalPos="189.60" arrivalSpeed="12.09" duration="41.00" routeLength="231.71" waitingTime="12.00" waitingCount="1" stopTime="0.00" timeLoss="21.88" rerouteNo="0" devices="vehroute_flow_9_phase1_E_straight.0 tripinfo_flow_9_phase1_E_straight.0" vType="truck" speedFactor="0.90" vaporized=""/>
    <tripinfo id="flow_9_phase1_E_straight.1" depart="13.00" departLane="E_in_0" departPos="131.13" departSpeed="9.54" departDelay="0.12" arrival="43.00" arrivalLane="W_out_0" arrivalPos="189.60" arrivalSpeed="15.65" duration="30.00" routeLength="268.87" waitingTime="0.00" waitingCount="0" stopTime="0.00" timeLoss="12.28" rerouteNo="0" devices="vehroute_flow_9_phase1_E_straight.1 tripinfo_flow_9_phase1_E_straight.1" vType="moto" speedFactor="1.16" vaporized=""/>
    <tripinfo id="flow_14_phase1_W_left.0" depart="0.00" departLane="W_in_1" departPos="50.07" departSpeed="13.54" departDelay="0.00" arrival="44.00" arrivalLane="N_out_1" arrivalPos="189.60" arrivalSpeed="13.94" duration="44.00" routeLength="348.48" waitingTime="7.00" waitingCount="2" stopTime="0.00" timeLoss="18.44" rerouteNo="0" devices="vehroute_flow_14_phase1_W_left.0 tripinfo_flow_14_phase1_W_left.0" vType="moto" speedFactor="1.01" vaporized=""/>
    <tripinfo id="flow_15_phase1_W_right.0" depart="0.00" departLane="W_in_1" departPos="108.38" departSpeed="1.98" departDelay="0.00" arrival="44.00" arrivalLane="S_out_0" arrivalPos="189.60" arrivalSpeed="11.35" duration="44.00" routeLength="279.85" waitingTime="7.00" waitingCount="1" stopTime="0.00" timeLoss="18.71" rerouteNo="0" devices="vehroute_flow_15_phase1_W_right.0 tripinfo_flow_15_phase1_W_right.0" vType="moto" speedFactor="0.85" vaporized=""/>
    <tripinfo id="flow_2_phase1_N_left.0" depart="0.00" departLane="W_in_1" departPos="8.27" departSpeed="8.33" departDelay="0.00" arrival="46.00" arrivalLane="E_out_1" arrivalPos="189.60" arrivalSpeed="14.01" duration="46.00" routeLength="391.73" waitingTime="4.00" waitingCount="2" stopTime="0.00" timeLoss="18.05" rerouteNo="0" devices="vehroute_flow_2_phase1_N_left.0 tripinfo_flow_2_phase1_N_left.0" vType="moto" speedFactor="1.02" vaporized=""/>
    <tripinfo id="flow_13_phase1_W_straight.0" depart="0.00" departLane="W_in_0" departPos="23.77" departSpeed="1.48" departDelay="0.00" arrival="48.00" arrivalLane="E_out_0" arrivalPos="189.60" arrivalSpeed="11.14" duration="48.00" routeLength="376.23" waitingTime="0.00" waitingCount="0" stopTime="0.00" timeLoss="14.90" rerouteNo="0" devices="vehroute_flow_13_phase1_W_straight.0 tripinfo_flow_13_phase1_W_straight.0" vType="container" speedFactor="0.82" vaporized=""/>
    <tripinfo id="flow_10_phase1_E_left.0" depart="0.00" departLane="E_in_0" departPos="44.88" departSpeed="7.69" departDelay="0.00" arrival="53.00" arrivalLane="S_out_1" arrivalPos="189.60" arrivalSpeed="13.74" duration="53.00" routeLength="353.67" waitingTime="7.00" waitingCount="2" stopTime="0.00" timeLoss="27.25" rerouteNo="0" devices="vehroute_flow_10_phase1_E_left.0 tripinfo_flow_10_phase1_E_left.0" vType="truck" speedFactor="1.02" vaporized=""/>
    <tripinfo id="flow_5_phase1_S_straight.1" depart="14.00" departLane="S_in_1" departPos="31.93" departSpeed="9.28" departDelay="0.77" arrival="53.00" arrivalLane="N_out_1" arrivalPos="189.60" arrivalSpeed="15.44" duration="39.00" routeLength="368.07" waitingTime="5.00" waitingCount="2" stopTime="0.00" timeLoss="15.45" rerouteNo="0" devices="vehroute_flow_5_phase1_S_straight.1 tripinfo_flow_5_phase1_S_straight.1" vType="moto" speedFactor="1.19" vaporized=""/>
    <tripinfo id="flow_7_phase1_S_right.0" depart="0.00" departLane="S_in_0" departPos="8.76" departSpeed="8.07" departDelay="0.00" arrival="56.00" arrivalLane="E_out_0" arrivalPos="189.60" arrivalSpeed="11.55" duration="56.00" routeLength="379.47" waitingTime="12.00" waitingCount="1" stopTime="0.00" timeLoss="22.79" rerouteNo="0" devices="vehroute_flow_7_phase1_S_right.0 tripinfo_flow_7_phase1_S_right.0" vType="container" speedFactor="0.85" vaporized=""/>
    <tripinfo id="flow_5_phase1_S_straight.2" depart="27.00" departLane="S_in_1" departPos="12.70" departSpeed="12.41" departDelay="0.54" arrival="58.00" arrivalLane="N_out_1" arrivalPos="189.60" arrivalSpeed="13.16" duration="31.00" routeLength="387.30" waitingTime="0.00" waitingCount="0" stopTime="0.00" timeLoss="1.18" rerouteNo="0" devices="vehroute_flow_5_phase1_S_straight.2 tripinfo_flow_5_phase1_S_straight.2" vType="moto" speedFactor="0.96" vaporized=""/>
    <tripinfo id="flow_13_phase1_W_straight.1" depart="14.00" departLane="W_in_1" departPos="121.65" departSpeed="2.86" departDelay="0.62" arrival="60.00" arrivalLane="E_out_1" arrivalPos="189.60" arrivalSpeed="14.99" duration="46.00" routeLength="278.35" waitingTime="14.00" waitingCount="1" stopTime="0.00" timeLoss="28.13" rerouteNo="0" devices="vehroute_flow_13_phase1_W_straight.1 tripinfo_flow_13_phase1_W_straight.1" vType="car" speedFactor="1.12" vaporized=""/>
    <tripinfo id="flow_15_phase1_W_right.1" depart="33.00" departLane="W_in_1" departPos="97.23" departSpeed="5.84" departDelay="0.16" arrival="60.00" arrivalLane="S_out_0" arrivalPos="189.60" arrivalSpeed="14.82" duration="27.00" routeLength="291.00" waitingTime="0.00" waitingCount="0" stopTime="0.00" timeLoss="6.96" rerouteNo="0" devices="vehroute_flow_15_phase1_W_right.1 tripinfo_flow_15_phase1_W_right.1" vType="moto" speedFactor="1.08" vaporized=""/>
    <tripinfo id="flow_9_phase1_E_straight.2" depart="26.00" departLane="E_in_1" departPos="52.87" departSpeed="0.38" departDelay="0.25" arrival="63.00" arrivalLane="W_out_0" arrivalPos="189.60" arrivalSpeed="13.03" duration="37.00" routeLength="347.13" waitingTime="0.00" waitingCount="0" stopTime="0.00" timeLoss="11.79" rerouteNo="0" devices="vehroute_flow_9_phase1_E_straight.2 tripinfo_flow_9_phase1_E_straight.2" vType="moto" speedFactor="0.99" vaporized=""/>
    <tripinfo id="flow_11_phase1_E_right.1" depart="33.00" departLane="W_in_1" departPos="80.24" departSpeed="3.06" departDelay="0.51" arrival="63.00" arrivalLane="S_out_0" arrivalPos="189.60" arrivalSpeed="14.31" duration="30.00" routeLength="307.99" waitingTime="0.00" waitingCount="0" stopTime="0.00" timeLoss="6.87" rerouteNo="0" devices="vehroute_flow_11_phase1_E_right.1 tripinfo_flow_11_phase1_E_right.1" vType="moto" speedFactor="1.04" vaporized=""/>
    <tripinfo id="flow_3_phase1_N_right.1" depart="35.00" departLane="E_in_0" departPos="166.00" departSpeed="1.28" departDelay="0.82" arrival="63.00" arrivalLane="N_out_0" arrivalPos="189.60" arrivalSpeed="12.21" duration="28.00" routeLength="222.23" waitingTime="3.00" waitingCount="1" stopTime="0.00" timeLoss="9.05" rerouteNo="0" devices="vehroute_flow_3_phase1_N_right.1 tripinfo_flow_3_phase1_N_right.1" vType="moto" speedFactor="0.88" vaporized=""/>
    <tripinfo id="flow_13_phase1_W_straight.3" depart="41.00" departLane="W_in_0" departPos="148.08" departSpeed="9.64" departDelay="0.85" arrival="64.00" arrivalLane="E_out_0" arrivalPos="189.60" arrivalSpeed="13.34" duration="23.00" routeLength="251.92" waitingTime="0.00" waitingCount="0" stopTime="0.00" timeLoss="5.27" rerouteNo="0" devices="vehroute_flow_13_phase1_W_straight.3 tripinfo_flow_13_phase1_W_straight.3" vType="car" speedFactor="1.05" vaporized=""/>
    <tripinfo id="flow_2_phase1_N_left.1" depart="33.00" departLane="W_in_0" departPos="8.88" departSpeed="2.82" departDelay="0.32" arrival="65.00" arrivalLane="E_out_0" arrivalPos="189.60" arrivalSpeed="14.72" duration="32.00" routeLength="391.12" waitingTime="0.00" waitingCount="0" stopTime="0.00" timeLoss="6.95" rerouteNo="0" devices="vehroute_flow_2_phase1_N_left.1 tripinfo_flow_2_phase1_N_left.1" vType="moto" speedFactor="1.12" vaporized=""/>
    <tripinfo id="flow_13_phase1_W_straight.2" depart="27.00" departLane="W_in_1" departPos="59.51" departSpeed="13.32" departDelay="0.23" arrival="68.00" arrivalLane="E_out_0" arrivalPos="189.60" arrivalSpeed="12.77" duration="41.00" routeLength="340.49" waitingTime="5.00" waitingCount="1" stopTime="0.00" timeLoss="15.57" rerouteNo="0" devices="vehroute_flow_13_phase1_W_straight.2 tripinfo_flow_13_phase1_W_straight.2" vType="bus" speedFactor="0.97" vaporized=""/>
    <tripinfo id="flow_6_phase1_S_left.1" depart="34.00" departLane="W_in_1" departPos="79.10" departSpeed="4.10" departDelay="0.55" arrival="69.00" arrivalLane="E_out_1" arrivalPos="189.60" arrivalSpeed="13.23" duration="35.00" routeLength="320.90" waitingTime="0.00" waitingCount="0" stopTime="0.00" timeLoss="12.25" rerouteNo="0" devices="vehroute_flow_6_phase1_S_left.1 tripinfo_flow_6_phase1_S_left.1" vType="moto" speedFactor="1.05" vaporized=""/>
    <tripinfo id="flow_9_phase1_E_straight.3" depart="39.00" departLane="E_in_1" departPos="108.76" departSpeed="5.39" departDelay="0.37" arrival="73.00" arrivalLane="W_out_0" arrivalPos="189.60" arrivalSpeed="11.71" duration="34.00" routeLength="291.24" waitingTime="0.00" waitingCount="0" stopTime="0.00" timeLoss="8.81" rerouteNo="0" devices="vehroute_flow_9_phase1_E_straight.3 tripinfo_flow_9_phase1_E_straight.3" vType="bus" speedFactor="0.85" vaporized=""/>
    <tripinfo id="flow_5_phase1_S_straight.3" depart="40.00" departLane="S_in_1" departPos="77.94" departSpeed="4.43" departDelay="0.31" arrival="74.00" arrivalLane="N_out_1" arrivalPos="189.60" arrivalSpeed="13.71" duration="34.00" routeLength="322.06" waitingTime="4.00" waitingCount="1" stopTime="0.00" timeLoss="12.39" rerouteNo="0" devices="vehroute_flow_5_phase1_S_straight.3 tripinfo_flow_5_phase1_S_straight.3" vType="moto" speedFactor="1.08" vaporized=""/>
    <tripinfo id="flow_1_phase1_N_straight.0" depart="0.00" departLane="E_in_0" departPos="8.62" departSpeed="8.51" departDelay="0.00" arrival="78.00" arrivalLane="E_out_0" arrivalPos="189.60" arrivalSpeed="11.76" duration="78.00" routeLength="375.25" waitingTime="18.00" waitingCount="4" stopTime="0.00" timeLoss="45.52" rerouteNo="0" devices="vehroute_flow_1_phase1_N_straight.0 tripinfo_flow_1_phase1_N_straight.0" vType="bus" speedFactor="0.86" vaporized=""/>
    <tripinfo id="flow_5_phase1_S_straight.4" depart="53.00" departLane="S_in_0" departPos="167.23" departSpeed="1.90" departDelay="0.08" arrival="82.00" arrivalLane="N_out_1" arrivalPos="189.60" arrivalSpeed="13.37" duration="29.00" routeLength="232.77" waitingTime="0.00" waitingCount="0" stopTime="0.00" timeLoss="10.93" rerouteNo="0" devices="vehroute_flow_5_phase1_S_straight.4 tripinfo_flow_5_phase1_S_straight.4" vType="container" speedFactor="0.97" vaporized=""/>
    <tripinfo id="flow_7_phase1_S_right.1" depart="33.00" departLane="S_in_1" departPos="66.71" departSpeed="7.87" departDelay="0.51" arrival="85.00" arrivalLane="E_out_0" arrivalPos="189.60" arrivalSpeed="10.81" duration="52.00" routeLength="321.52" waitingTime="9.00" waitingCount="1" stopTime="0.00" timeLoss="20.95" rerouteNo="0" devices="vehroute_flow_7_phase1_S_right.1 tripinfo_flow_7_phase1_S_right.1" vType="container" speedFactor="0.78" vaporized=""/>
    <tripinfo id="flow_9_phase1_E_straight.4" depart="52.00" departLane="E_in_1" departPos="23.57" departSpeed="9.43" departDelay="0.49" arrival="89.00" arrivalLane="W_out_0" arrivalPos="189.60" arrivalSpeed="12.65" duration="37.00" routeLength="376.43" waitingTime="0.00" waitingCount="0" stopTime="0.00" timeLoss="7.83" rerouteNo="0" devices="vehroute_flow_9_phase1_E_straight.4 tripinfo_flow_9_phase1_E_straight.4" vType="bus" speedFactor="0.95" vaporized=""/>
    <tripinfo id="flow_13_phase1_W_straight.4" depart="54.00" departLane="W_in_0" departPos="8.08" departSpeed="5.80" departDelay="0.46" arrival="90.00" arrivalLane="E_out_0" arrivalPos="189.60" arrivalSpeed="12.06" duration="36.00" routeLength="391.92" waitingTime="0.00" waitingCount="0" stopTime="0.00" timeLoss="2.78" rerouteNo="0" devices="vehroute_flow_13_phase1_W_straight.4 tripinfo_flow_13_phase1_W_straight.4" vType="bus" speedFactor="0.87" vaporized=""/>
    <tripinfo id="flow_9_phase1_E_straight.5" depart="65.00" departLane="E_in_0" departPos="81.69" departSpeed="9.19" departDelay="0.62" arrival="91.00" arrivalLane="W_out_0" arrivalPos="189.60" arrivalSpeed="13.23" duration="26.00" routeLength="318.31" waitingTime="0.00" waitingCount="0" stopTime="0.00" timeLoss="2.33" rerouteNo="0" devices="vehroute_flow_9_phase1_E_straight.5 tripinfo_flow_9_phase1_E_straight.5" vType="moto" speedFactor="1.00" vaporized=""/>
    <tripinfo id="flow_15_phase1_W_right.2" depart="66.00" departLane="W_in_0" departPos="91.52" departSpeed="10.95" departDelay="0.32" arrival="94.00" arrivalLane="S_out_0" arrivalPos="189.60" arrivalSpeed="12.16" duration="28.00" routeLength="296.71" waitingTime="0.00" waitingCount="0" stopTime="0.00" timeLoss="3.09" rerouteNo="0" devices="vehroute_flow_15_phase1_W_right.2 tripinfo_flow_15_phase1_W_right.2" vType="moto" speedFactor="0.89" vaporized=""/>
    <tripinfo id="flow_11_phase1_E_right.2" depart="65.00" departLane="W_in_0" departPos="71.94" departSpeed="4.41" departDelay="0.02" arrival="95.00" arrivalLane="S_out_0" arrivalPos="189.60" arrivalSpeed="13.84" duration="30.00" routeLength="316.29" waitingTime="0.00" waitingCount="0" stopTime="0.00" timeLoss="9.50" rerouteNo="0" devices="vehroute_flow_11_phase1_E_right.2 tripinfo_flow_11_phase1_E_right.2" vType="moto" speedFactor="1.14" vaporized=""/>
    <tripinfo id="flow_13_phase1_W_straight.5" depart="67.00" departLane="W_in_1" departPos="155.35" departSpeed="10.58" departDelay="0.08" arrival="95.00" arrivalLane="E_out_0" arrivalPos="189.60" arrivalSpeed="15.68" duration="28.00" routeLength="244.65" waitingTime="0.00" waitingCount="0" stopTime="0.00" timeLoss="12.20" rerouteNo="0" devices="vehroute_flow_13_phase1_W_straight.5 tripinfo_flow_13_phase1_W_straight.5" vType="moto" speedFactor="1.14" vaporized=""/>
    <tripinfo id="flow_7_phase1_S_right.2" depart="65.00" departLane="S_in_1" departPos="171.48" departSpeed="2.19" departDelay="0.01" arrival="100.00" arrivalLane="E_out_0" arrivalPos="189.60" arrivalSpeed="13.66" duration="35.00" routeLength="216.75" waitingTime="12.00" waitingCount="1" stopTime="0.00" timeLoss="19.07" rerouteNo="0" devices="vehroute_flow_7_phase1_S_right.2 tripinfo_flow_7_phase1_S_right.2" vType="moto" speedFactor="1.03" vaporized=""/>
    <tripinfo id="flow_1_phase1_N_straight.4" depart="55.00" departLane="E_in_0" departPos="185.47" departSpeed="3.56" departDelay="0.94" arrival="101.00" arrivalLane="E_out_1" arrivalPos="189.60" arrivalSpeed="12.20" duration="46.00" routeLength="198.40" waitingTime="20.00" waitingCount="3" stopTime="0.00" timeLoss="28.90" rerouteNo="0" devices="vehroute_flow_1_phase1_N_straight.4 tripinfo_flow_1_phase1_N_straight.4" vType="truck" speedFactor="0.92" vaporized=""/>
    <tripinfo id="flow_5_phase1_S_straight.5" depart="67.00" departLane="S_in_0" departPos="64.25" departSpeed="6.71" departDelay="0.85" arrival="102.00" arrivalLane="N_out_0" arrivalPos="189.60" arrivalSpeed="13.82" duration="35.00" routeLength="335.75" waitingTime="2.00" waitingCount="1" stopTime="0.00" timeLoss="11.24" rerouteNo="0" devices="vehroute_flow_5_phase1_S_straight.5 tripinfo_flow_5_phase1_S_straight.5" vType="moto" speedFactor="1.03" vaporized=""/>
    <tripinfo id="flow_14_phase1_W_left.1" depart="35.00" departLane="W_in_0" departPos="80.60" departSpeed="5.52" departDelay="0.53" arrival="103.00" arrivalLane="N_out_1" arrivalPos="189.60" arrivalSpeed="12.13" duration="68.00" routeLength="317.95" waitingTime="13.00" waitingCount="2" stopTime="0.00" timeLoss="41.39" rerouteNo="0" devices="vehroute_flow_14_phase1_W_left.1 tripinfo_flow_14_phase1_W_left.1" vType="container" speedFactor="0.91" vaporized=""/>
    <tripinfo id="flow_8_phase1_S_uturn.1" depart="66.00" departLane="S_in_0" departPos="121.56" departSpeed="11.19" departDelay="0.07" arrival="104.00" arrivalLane="S_out_1" arrivalPos="189.60" arrivalSpeed="13.00" duration="38.00" routeLength="262.31" waitingTime="8.00" waitingCount="1" stopTime="0.00" timeLoss="17.02" rerouteNo="0" devices="vehroute_flow_8_phase1_S_uturn.1 tripinfo_flow_8_phase1_S_uturn.1" vType="truck" speedFactor="0.94" vaporized=""/>
    <tripinfo id="flow_5_phase1_S_straight.6" depart="80.00" departLane="S_in_0" departPos="149.69" departSpeed="1.98" departDelay="0.62" arrival="104.00" arrivalLane="N_out_0" arrivalPos="189.60" arrivalSpeed="14.75" duration="24.00" routeLength="250.31" waitingTime="0.00" waitingCount="0" stopTime="0.00" timeLoss="6.67" rerouteNo="0" devices="vehroute_flow_5_phase1_S_straight.6 tripinfo_flow_5_phase1_S_straight.6" vType="moto" speedFactor="1.10" vaporized=""/>
    <tripinfo id="flow_4_phase1_N_uturn.1" depart="67.00" departLane="N_in_1" departPos="65.57" departSpeed="2.18" departDelay="0.96" arrival="106.00" arrivalLane="N_out_1" arrivalPos="189.60" arrivalSpeed="12.44" duration="39.00" routeLength="318.30" waitingTime="3.00" waitingCount="1" stopTime="0.00" timeLoss="13.57" rerouteNo="0" devices="vehroute_flow_4_phase1_N_uturn.1 tripinfo_flow_4_phase1_N_uturn.1" vType="moto" speedFactor="0.94" vaporized=""/>
    <tripinfo id="flow_2_phase1_N_left.2" depart="66.00" departLane="W_in_1" departPos="108.70" departSpeed="9.05" departDelay="0.64" arrival="112.00" arrivalLane="E_out_0" arrivalPos="189.60" arrivalSpeed="15.23" duration="46.00" routeLength="291.30" waitingTime="12.00" waitingCount="1" stopTime="0.00" timeLoss="26.60" rerouteNo="0" devices="vehroute_flow_2_phase1_N_left.2 tripinfo_flow_2_phase1_N_left.2" vType="emergency" speedFactor="1.10" vaporized=""/>
    <tripinfo id="flow_3_phase1_N_right.2" depart="69.00" departLane="E_in_1" departPos="29.07" departSpeed="5.11" departDelay="0.63" arrival="112.00" arrivalLane="N_out_0" arrivalPos="189.60" arrivalSpeed="14.94" duration="43.00" routeLength="359.16" waitingTime="11.00" waitingCount="1" stopTime="0.00" timeLoss="18.97" rerouteNo="0" devices="vehroute_flow_3_phase1_N_right.2 tripinfo_flow_3_phase1_N_right.2" vType="moto" speedFactor="1.10" vaporized=""/>
    <tripinfo id="flow_16_phase1_W_uturn.1" depart="67.00" departLane="W_in_0" departPos="92.42" departSpeed="10.39" departDelay="0.80" arrival="116.00" arrivalLane="W_out_1" arrivalPos="189.60" arrivalSpeed="13.84" duration="49.00" routeLength="291.45" waitingTime="11.00" waitingCount="1" stopTime="0.00" timeLoss="27.56" rerouteNo="0" devices="vehroute_flow_16_phase1_W_uturn.1 tripinfo_flow_16_phase1_W_uturn.1" vType="moto" speedFactor="1.04" vaporized=""/>
    <tripinfo id="flow_9_phase1_E_straight.6" depart="78.00" departLane="E_in_1" departPos="29.88" departSpeed="11.37" departDelay="0.74" arrival="116.00" arrivalLane="W_out_0" arrivalPos="189.60" arrivalSpeed="13.41" duration="38.00" routeLength="370.12" waitingTime="0.00" waitingCount="0" stopTime="0.00" timeLoss="11.65" rerouteNo="0" devices="vehroute_flow_9_phase1_E_straight.6 tripinfo_flow_9_phase1_E_straight.6" vType="moto" speedFactor="1.02" vaporized=""/>
    <tripinfo id="flow_15_phase1_W_right.3" depart="99.00" departLane="W_in_0" departPos="150.32" departSpeed="6.88" departDelay="0.49" arrival="118.00" arrivalLane="S_out_0" arrivalPos="189.60" arrivalSpeed="15.54" duration="19.00" routeLength="237.91" waitingTime="0.00" waitingCount="0" stopTime="0.00" timeLoss="3.57" rerouteNo="0" devices="vehroute_flow_15_phase1_W_right.3 tripinfo_flow_15_phase1_W_right.3" vType="moto" speedFactor="1.17" vaporized=""/>
    <tripinfo id="flow_6_phase1_S_left.2" depart="67.00" departLane="W_in_1" departPos="2.21" departSpeed="8.17" departDelay="0.10" arrival="119.00" arrivalLane="E_out_0" arrivalPos="189.60" arrivalSpeed="12.16" duration="52.00" routeLength="397.79" waitingTime="6.00" waitingCount="1" stopTime="0.00" timeLoss="19.81" rerouteNo="0" devices="vehroute_flow_6_phase1_S_left.2 tripinfo_flow_6_phase1_S_left.2" vType="truck" speedFactor="0.89" vaporized=""/>
    <tripinfo id="flow_9_phase1_E_straight.7" depart="91.00" departLane="E_in_1" departPos="88.32" departSpeed="11.93" departDelay="0.86" arrival="119.00" arrivalLane="W_out_0" arrivalPos="189.60" arrivalSpeed="12.73" duration="28.00" routeLength="311.68" waitingTime="0.00" waitingCount="0" stopTime="0.00" timeLoss="5.77" rerouteNo="0" devices="vehroute_flow_9_phase1_E_straight.7 tripinfo_flow_9_phase1_E_straight.7" vType="moto" speedFactor="1.01" vaporized=""/>
    <tripinfo id="flow_13_phase1_W_straight.6" depart="81.00" departLane="W_in_0" departPos="42.85" departSpeed="1.33" departDelay="0.70" arrival="120.00" arrivalLane="E_out_1" arrivalPos="189.60" arrivalSpeed="12.66" duration="39.00" routeLength="357.15" waitingTime="0.00" waitingCount="0" stopTime="0.00" timeLoss="11.79" rerouteNo="0" devices="vehroute_flow_13_phase1_W_straight.6 tripinfo_flow_13_phase1_W_straight.6" vType="car" speedFactor="0.98" vaporized=""/>
    <tripinfo id="flow_9_phase1_E_straight.8" depart="104.00" departLane="E_in_0" departPos="178.62" departSpeed="7.12" departDelay="0.98" arrival="123.00" arrivalLane="W_out_0" arrivalPos="189.60" arrivalSpeed="12.81" duration="19.00" routeLength="221.38" waitingTime="0.00" waitingCount="0" stopTime="0.00" timeLoss="1.33" rerouteNo="0" devices="vehroute_flow_9_phase1_E_straight.8 tripinfo_flow_9_phase1_E_straight.8" vType="moto" speedFactor="0.94" vaporized=""/>
    <tripinfo id="flow_1_phase1_N_straight.1" depart="14.00" departLane="E_in_1" departPos="58.36" departSpeed="11.64" departDelay="0.48" arrival="126.00" arrivalLane="E_out_0" arrivalPos="189.60" arrivalSpeed="10.84" duration="112.00" routeLength="325.51" waitingTime="52.00" waitingCount="7" stopTime="0.00" timeLoss="83.24" rerouteNo="0" devices="vehroute_flow_1_phase1_N_straight.1 tripinfo_flow_1_phase1_N_straight.1" vType="moto" speedFactor="0.87" vaporized=""/>
    <tripinfo id="flow_14_phase1_W_left.2" depart="69.00" departLane="W_in_1" departPos="84.30" departSpeed="4.03" departDelay="0.06" arrival="127.00" arrivalLane="N_out_1" arrivalPos="189.60" arrivalSpeed="11.57" duration="58.00" routeLength="314.25" waitingTime="13.00" waitingCount="2" stopTime="0.00" timeLoss="31.89" rerouteNo="0" devices="vehroute_flow_14_phase1_W_left.2 tripinfo_flow_14_phase1_W_left.2" vType="car" speedFactor="0.90" vaporized=""/>
    <tripinfo id="flow_5_phase1_S_straight.8" depart="106.00" departLane="S_in_0" departPos="65.74" departSpeed="2.97" departDelay="0.16" arrival="130.00" arrivalLane="N_out_1" arrivalPos="189.60" arrivalSpeed="15.55" duration="24.00" routeLength="334.26" waitingTime="0.00" waitingCount="0" stopTime="0.00" timeLoss="2.45" rerouteNo="0" devices="vehroute_flow_5_phase1_S_straight.8 tripinfo_flow_5_phase1_S_straight.8" vType="emergency" speedFactor="1.14" vaporized=""/>
    <tripinfo id="flow_5_phase1_S_straight.7" depart="93.00" departLane="S_in_0" departPos="178.36" departSpeed="3.00" departDelay="0.39" arrival="132.00" arrivalLane="N_out_0" arrivalPos="189.60" arrivalSpeed="11.85" duration="39.00" routeLength="221.64" waitingTime="11.00" waitingCount="1" stopTime="0.00" timeLoss="21.24" rerouteNo="0" devices="vehroute_flow_5_phase1_S_straight.7 tripinfo_flow_5_phase1_S_straight.7" vType="bus" speedFactor="0.90" vaporized=""/>
    <tripinfo id="flow_7_phase1_S_right.3" depart="98.00" departLane="S_in_1" departPos="142.12" departSpeed="0.51" departDelay="0.52" arrival="132.00" arrivalLane="E_out_0" arrivalPos="189.60" arrivalSpeed="13.72" duration="34.00" routeLength="246.11" waitingTime="3.00" waitingCount="1" stopTime="0.00" timeLoss="15.68" rerouteNo="0" devices="vehroute_flow_7_phase1_S_right.3 tripinfo_flow_7_phase1_S_right.3" vType="moto" speedFactor="1.07" vaporized=""/>
    <tripinfo id="flow_14_phase1_W_left.3" depart="104.00" departLane="W_in_0" departPos="173.60" departSpeed="3.35" departDelay="0.59" arrival="139.00" arrivalLane="N_out_1" arrivalPos="189.60" arrivalSpeed="15.10" duration="35.00" routeLength="224.95" waitingTime="10.00" waitingCount="1" stopTime="0.00" timeLoss="19.26" rerouteNo="0" devices="vehroute_flow_14_phase1_W_left.3 tripinfo_flow_14_phase1_W_left.3" vType="moto" speedFactor="1.09" vaporized=""/>
    <tripinfo id="flow_3_phase1_N_right.3" depart="103.00" departLane="E_in_1" departPos="109.81" departSpeed="0.16" departDelay="0.45" arrival="140.00" arrivalLane="N_out_0" arrivalPos="189.60" arrivalSpeed="12.75" duration="37.00" routeLength="278.42" waitingTime="7.00" waitingCount="1" stopTime="0.00" timeLoss="15.35" rerouteNo="0" devices="vehroute_flow_3_phase1_N_right.3 tripinfo_flow_3_phase1_N_right.3" vType="moto" speedFactor="0.96" vaporized=""/>
    <tripinfo id="flow_13_phase1_W_straight.7" depart="94.00" departLane="W_in_1" departPos="107.80" departSpeed="10.21" departDelay="0.31" arrival="143.00" arrivalLane="E_out_0" arrivalPos="189.60" arrivalSpeed="10.36" duration="49.00" routeLength="292.20" waitingTime="16.00" waitingCount="1" stopTime="0.00" timeLoss="22.73" rerouteNo="0" devices="vehroute_flow_13_phase1_W_straight.7 tripinfo_flow_13_phase1_W_straight.7" vType="moto" speedFactor="0.80" vaporized=""/>