<?xml version="1.0" encoding="UTF-8"?>

<!-- generated on 2025-12-08 21:28:46 by Eclipse SUMO sumo Version 1.18.0
<configuration xmlns:xsi="http://www.w3.org/2001/XMLSchema-instance" xsi:noNamespaceSchemaLocation="http://sumo.dlr.de/xsd/sumoConfiguration.xsd">

    <input>
        <net-file value="/workspace/nets/60p2k/net.net.xml"/>
        <route-files value="/workspace/nets/60p2k/route_temp_244_130720908769792_63793894.rou.xml"/>
    </input>

    <output>
        <summary-output value="results/summary_ep_18.xml"/>
        <tripinfo-output value="results/tripinfo_ep_18.xml"/>
        <vehroute-output value="results/vehroute_ep_18.xml"/>
    </output>

    <time>
        <begin value="0"/>
    </time>

    <report>
        <verbose value="true"/>
        <no-step-log value="true"/>
    </report>

    <traci_server>
        <remote-port value="38341"/>
    </traci_server>

    <gui_only>
        <gui-settings-file value="/workspace/nets/60p2k/gui-settings.xml"/>
        <quit-on-end value="true"/>
    </gui_only>

</configuration>
-->

<tripinfos xmlns:xsi="http://www.w3.org/2001/XMLSchema-instance" xsi:noNamespaceSchemaLocation="http://sumo.dlr.de/xsd/tripinfo_file.xsd">
    <tripinfo id="flow_5_phase1_S_straight.0" depart="0.00" departLane="N_in_1" departPos="107.37" departSpeed="7.21" departDelay="0.00" arrival="25.00" arrivalLane="S_out_0" arrivalPos="189.60" arrivalSpeed="15.28" duration="25.00" routeLength="292.63" waitingTime="0.00" waitingCount="0" stopTime="0.00" timeLoss="6.19" rerouteNo="0" devices="vehroute_flow_5_phase1_S_straight.0 tripinfo_flow_5_phase1_S_straight.0" vType="moto" speedFactor="1.15" vaporized=""/>
    <tripinfo id="flow_6_phase1_S_left.0" depart="0.00" departLane="S_in_1" departPos="166.01" departSpeed="0.74" departDelay="0.00" arrival="25.00" arrivalLane="W_out_1" arrivalPos="189.60" arrivalSpeed="11.57" duration="25.00" routeLength="232.54" waitingTime="0.00" waitingCount="0" stopTime="0.00" timeLoss="4.51" rerouteNo="0" devices="vehroute_flow_6_phase1_S_left.0 tripinfo_flow_6_phase1_S_left.0" vType="moto" speedFactor="0.88" vaporized=""/>
    <tripinfo id="flow_4_phase1_N_uturn.0" depart="0.00" departLane="N_in_1" departPos="127.60" departSpeed="0.08" departDelay="0.00" arrival="27.00" arrivalLane="N_out_1" arrivalPos="189.60" arrivalSpeed="11.91" duration="27.00" routeLength="256.27" waitingTime="0.00" waitingCount="0" stopTime="0.00" timeLoss="6.22" rerouteNo="0" devices="vehroute_flow_4_phase1_N_uturn.0 tripinfo_flow_4_phase1_N_uturn.0" vType="car" speedFactor="0.92" vaporized=""/>
    <tripinfo id="flow_3_phase1_N_right.0" depart="0.00" departLane="E_in_0" departPos="103.38" departSpeed="3.75" departDelay="0.00" arrival="36.00" arrivalLane="W_out_1" arrivalPos="189.60" arrivalSpeed="14.95" duration="36.00" routeLength="296.62" waitingTime="6.00" waitingCount="1" stopTime="0.00" timeLoss="15.56" rerouteNo="0" devices="vehroute_flow_3_phase1_N_right.0 tripinfo_flow_3_phase1_N_right.0" vType="car" speedFactor="1.09" vaporized=""/>
    <tripinfo id="flow_11_phase1_E_right.0" depart="0.00" departLane="E_in_1" departPos="144.95" departSpeed="4.02" departDelay="0.00" arrival="40.00" arrivalLane="N_out_0" arrivalPos="189.60" arrivalSpeed="13.21" duration="40.00" routeLength="243.28" waitingTime="9.00" waitingCount="1" stopTime="0.00" timeLoss="20.13" rerouteNo="0" devices="vehroute_flow_11_phase1_E_right.0 tripinfo_flow_11_phase1_E_right.0" vType="bus" speedFactor="0.96" vaporized=""/>
    <tripinfo id="flow_9_phase1_E_straight.0" depart="0.00" departLane="W_in_0" departPos="168.29" departSpeed="9.83" departDelay="0.00" arrival="41.00" arrivalLane="E_out_0" arrivalPos="189.60" arrivalSpeed="11.96" duration="41.00" routeLength="231.71" waitingTime="13.00" waitingCount="1" stopTime="0.00" timeLoss="22.23" rerouteNo="0" devices="vehroute_flow_9_phase1_E_straight.0 tripinfo_flow_9_phase1_E_straight.0" vType="truck" speedFactor="0.90" vaporized=""/>
    <tripinfo id="flow_15_phase1_W_right.0" depart="0.00" departLane="W_in_1" departPos="153.90" departSpeed="6.73" departDelay="0.00" arrival="42.00" arrivalLane="S_out_0" arrivalPos="189.60" arrivalSpeed="11.58" duration="42.00" routeLength="234.33" waitingTime="13.00" waitingCount="1" stopTime="0.00" timeLoss="20.82" rerouteNo="0" devices="vehroute_flow_15_phase1_W_right.0 tripinfo_flow_15_phase1_W_right.0" vType="moto" speedFactor="0.85" vaporized=""/>
    <tripinfo id="flow_1_phase1_N_straight.0" depart="0.00" departLane="W_in_0" departPos="8.62" departSpeed="8.51" departDelay="0.00" arrival="45.00" arrivalLane="S_out_0" arrivalPos="189.60" arrivalSpeed="11.37" duration="45.00" routeLength="379.61" waitingTime="1.00" waitingCount="1" stopTime="0.00" timeLoss="12.05" rerouteNo="0" devices="vehroute_flow_1_phase1_N_straight.0 tripinfo_flow_1_phase1_N_straight.0" vType="bus" speedFactor="0.86" vaporized=""/>
    <tripinfo id="flow_10_phase1_E_left.0" depart="0.00" departLane="E_in_0" departPos="44.88" departSpeed="7.69" departDelay="0.00" arrival="45.00" arrivalLane="S_out_1" arrivalPos="189.60" arrivalSpeed="13.44" duration="45.00" routeLength="353.67" waitingTime="3.00" waitingCount="1" stopTime="0.00" timeLoss="18.53" rerouteNo="0" devices="vehroute_flow_10_phase1_E_left.0 tripinfo_flow_10_phase1_E_left.0" vType="truck" speedFactor="1.02" vaporized=""/>
    <tripinfo id="flow_12_phase1_E_uturn.0" depart="0.00" departLane="E_in_0" departPos="5.65" departSpeed="13.76" departDelay="0.00" arrival="45.00" arrivalLane="E_out_1" arrivalPos="189.60" arrivalSpeed="14.20" duration="45.00" routeLength="378.22" waitingTime="3.00" waitingCount="1" stopTime="0.00" timeLoss="16.66" rerouteNo="0" devices="vehroute_flow_12_phase1_E_uturn.0 tripinfo_flow_12_phase1_E_uturn.0" vType="moto" speedFactor="1.03" vaporized=""/>
    <tripinfo id="flow_16_phase1_W_uturn.0" depart="0.00" departLane="W_in_0" departPos="135.67" departSpeed="9.64" departDelay="0.00" arrival="45.00" arrivalLane="W_out_1" arrivalPos="189.60" arrivalSpeed="13.28" duration="45.00" routeLength="248.20" waitingTime="18.00" waitingCount="2" stopTime="0.00" timeLoss="26.14" rerouteNo="0" devices="vehroute_flow_16_phase1_W_uturn.0 tripinfo_flow_16_phase1_W_uturn.0" vType="moto" speedFactor="1.04" vaporized=""/>
    <tripinfo id="flow_13_phase1_W_straight.0" depart="0.00" departLane="E_in_0" departPos="77.99" departSpeed="3.79" departDelay="0.00" arrival="48.00" arrivalLane="W_out_0" arrivalPos="189.60" arrivalSpeed="10.87" duration="48.00" routeLength="322.01" waitingTime="4.00" waitingCount="1" stopTime="0.00" timeLoss="19.10" rerouteNo="0" devices="vehroute_flow_13_phase1_W_straight.0 tripinfo_flow_13_phase1_W_straight.0" vType="container" speedFactor="0.82" vaporized=""/>
    <tripinfo id="flow_5_phase1_S_straight.1" depart="14.00" departLane="N_in_1" departPos="121.65" departSpeed="2.93" departDelay="0.77" arrival="48.00" arrivalLane="S_out_0" arrivalPos="189.60" arrivalSpeed="15.54" duration="34.00" routeLength="278.35" waitingTime="6.00" waitingCount="1" stopTime="0.00" timeLoss="16.17" rerouteNo="0" devices="vehroute_flow_5_phase1_S_straight.1 tripinfo_flow_5_phase1_S_straight.1" vType="moto" speedFactor="1.19" vaporized=""/>
    <tripinfo id="flow_5_phase1_S_straight.2" depart="27.00" departLane="N_in_1" departPos="59.51" departSpeed="13.27" departDelay="0.54" arrival="54.00" arrivalLane="S_out_1" arrivalPos="189.60" arrivalSpeed="12.73" duration="27.00" routeLength="340.49" waitingTime="0.00" waitingCount="0" stopTime="0.00" timeLoss="1.25" rerouteNo="0" devices="vehroute_flow_5_phase1_S_straight.2 tripinfo_flow_5_phase1_S_straight.2" vType="moto" speedFactor="0.96" vaporized=""/>
    <tripinfo id="flow_7_phase1_S_right.0" depart="0.00" departLane="S_in_0" departPos="8.76" departSpeed="8.07" departDelay="0.00" arrival="57.00" arrivalLane="E_out_0" arrivalPos="189.60" arrivalSpeed="11.30" duration="57.00" routeLength="379.47" waitingTime="12.00" waitingCount="1" stopTime="0.00" timeLoss="23.47" rerouteNo="0" devices="vehroute_flow_7_phase1_S_right.0 tripinfo_flow_7_phase1_S_right.0" vType="container" speedFactor="0.85" vaporized=""/>
    <tripinfo id="flow_13_phase1_W_straight.1" depart="14.00" departLane="E_in_1" departPos="52.87" departSpeed="0.43" departDelay="0.62" arrival="61.00" arrivalLane="W_out_0" arrivalPos="189.60" arrivalSpeed="15.52" duration="47.00" routeLength="347.13" waitingTime="12.00" waitingCount="1" stopTime="0.00" timeLoss="24.34" rerouteNo="0" devices="vehroute_flow_13_phase1_W_straight.1 tripinfo_flow_13_phase1_W_straight.1" vType="car" speedFactor="1.12" vaporized=""/>
    <tripinfo id="flow_9_phase1_E_straight.1" depart="13.00" departLane="W_in_1" departPos="58.36" departSpeed="11.07" departDelay="0.12" arrival="62.00" arrivalLane="E_out_0" arrivalPos="189.60" arrivalSpeed="15.53" duration="49.00" routeLength="341.64" waitingTime="13.00" waitingCount="2" stopTime="0.00" timeLoss="27.34" rerouteNo="0" devices="vehroute_flow_9_phase1_E_straight.1 tripinfo_flow_9_phase1_E_straight.1" vType="moto" speedFactor="1.16" vaporized=""/>
    <tripinfo id="flow_1_phase1_N_straight.1" depart="14.00" departLane="W_in_1" departPos="31.93" departSpeed="7.04" departDelay="0.48" arrival="63.00" arrivalLane="S_out_0" arrivalPos="189.60" arrivalSpeed="11.55" duration="49.00" routeLength="356.30" waitingTime="12.00" waitingCount="1" stopTime="0.00" timeLoss="18.89" rerouteNo="0" devices="vehroute_flow_1_phase1_N_straight.1 tripinfo_flow_1_phase1_N_straight.1" vType="moto" speedFactor="0.87" vaporized=""/>
    <tripinfo id="flow_15_phase1_W_right.1" depart="33.00" departLane="W_in_1" departPos="79.10" departSpeed="12.38" departDelay="0.16" arrival="65.00" arrivalLane="S_out_0" arrivalPos="189.60" arrivalSpeed="14.96" duration="32.00" routeLength="309.13" waitingTime="2.00" waitingCount="1" stopTime="0.00" timeLoss="9.73" rerouteNo="0" devices="vehroute_flow_15_phase1_W_right.1 tripinfo_flow_15_phase1_W_right.1" vType="moto" speedFactor="1.08" vaporized=""/>
    <tripinfo id="flow_11_phase1_E_right.1" depart="33.00" departLane="E_in_0" departPos="73.90" departSpeed="8.86" departDelay="0.51" arrival="66.00" arrivalLane="N_out_0" arrivalPos="189.60" arrivalSpeed="14.02" duration="33.00" routeLength="314.33" waitingTime="0.00" waitingCount="0" stopTime="0.00" timeLoss="10.20" rerouteNo="0" devices="vehroute_flow_11_phase1_E_right.1 tripinfo_flow_11_phase1_E_right.1" vType="moto" speedFactor="1.04" vaporized=""/>
    <tripinfo id="flow_13_phase1_W_straight.2" depart="27.00" departLane="E_in_1" departPos="107.53" departSpeed="1.15" departDelay="0.23" arrival="67.00" arrivalLane="W_out_0" arrivalPos="189.60" arrivalSpeed="13.32" duration="40.00" routeLength="292.47" waitingTime="2.00" waitingCount="1" stopTime="0.00" timeLoss="17.50" rerouteNo="0" devices="vehroute_flow_13_phase1_W_straight.2 tripinfo_flow_13_phase1_W_straight.2" vType="bus" speedFactor="0.97" vaporized=""/>
    <tripinfo id="flow_1_phase1_N_straight.2" depart="28.00" departLane="W_in_0" departPos="8.88" departSpeed="2.33" departDelay="0.97" arrival="68.00" arrivalLane="S_out_0" arrivalPos="189.60" arrivalSpeed="12.48" duration="40.00" routeLength="379.35" waitingTime="0.00" waitingCount="0" stopTime="0.00" timeLoss="9.25" rerouteNo="0" devices="vehroute_flow_1_phase1_N_straight.2 tripinfo_flow_1_phase1_N_straight.2" vType="moto" speedFactor="0.93" vaporized=""/>
    <tripinfo id="flow_1_phase1_N_straight.3" depart="41.00" departLane="W_in_1" departPos="23.57" departSpeed="11.40" departDelay="0.45" arrival="69.00" arrivalLane="S_out_0" arrivalPos="189.60" arrivalSpeed="13.66" duration="28.00" routeLength="364.66" waitingTime="0.00" waitingCount="0" stopTime="0.00" timeLoss="4.31" rerouteNo="0" devices="vehroute_flow_1_phase1_N_straight.3 tripinfo_flow_1_phase1_N_straight.3" vType="moto" speedFactor="1.20" vaporized=""/>
    <tripinfo id="flow_13_phase1_W_straight.3" depart="41.00" departLane="E_in_0" departPos="70.46" departSpeed="2.06" departDelay="0.85" arrival="69.00" arrivalLane="W_out_0" arrivalPos="189.60" arrivalSpeed="13.38" duration="28.00" routeLength="329.54" waitingTime="0.00" waitingCount="0" stopTime="0.00" timeLoss="4.94" rerouteNo="0" devices="vehroute_flow_13_phase1_W_straight.3 tripinfo_flow_13_phase1_W_straight.3" vType="car" speedFactor="1.05" vaporized=""/>
    <tripinfo id="flow_3_phase1_N_right.1" depart="35.00" departLane="E_in_1" departPos="80.60" departSpeed="6.03" departDelay="0.82" arrival="72.00" arrivalLane="W_out_0" arrivalPos="189.60" arrivalSpeed="11.56" duration="37.00" routeLength="319.40" waitingTime="0.00" waitingCount="0" stopTime="0.00" timeLoss="10.16" rerouteNo="0" devices="vehroute_flow_3_phase1_N_right.1 tripinfo_flow_3_phase1_N_right.1" vType="moto" speedFactor="0.88" vaporized=""/>
    <tripinfo id="flow_8_phase1_S_uturn.0" depart="0.00" departLane="W_in_0" departPos="120.11" departSpeed="4.48" departDelay="0.00" arrival="73.00" arrivalLane="W_out_1" arrivalPos="189.60" arrivalSpeed="14.10" duration="73.00" routeLength="263.76" waitingTime="38.00" waitingCount="4" stopTime="0.00" timeLoss="53.67" rerouteNo="0" devices="vehroute_flow_8_phase1_S_uturn.0 tripinfo_flow_8_phase1_S_uturn.0" vType="moto" speedFactor="1.05" vaporized=""/>
    <tripinfo id="flow_10_phase1_E_left.1" depart="34.00" departLane="E_in_0" departPos="118.54" departSpeed="1.12" departDelay="0.50" arrival="73.00" arrivalLane="S_out_0" arrivalPos="189.60" arrivalSpeed="10.58" duration="39.00" routeLength="280.01" waitingTime="0.00" waitingCount="0" stopTime="0.00" timeLoss="11.02" rerouteNo="0" devices="vehroute_flow_10_phase1_E_left.1 tripinfo_flow_10_phase1_E_left.1" vType="truck" speedFactor="0.77" vaporized=""/>
    <tripinfo id="flow_5_phase1_S_straight.3" depart="40.00" departLane="N_in_0" departPos="148.08" departSpeed="9.90" departDelay="0.31" arrival="75.00" arrivalLane="S_out_0" arrivalPos="189.60" arrivalSpeed="13.78" duration="35.00" routeLength="251.92" waitingTime="10.00" waitingCount="1" stopTime="0.00" timeLoss="17.29" rerouteNo="0" devices="vehroute_flow_5_phase1_S_straight.3 tripinfo_flow_5_phase1_S_straight.3" vType="moto" speedFactor="1.08" vaporized=""/>
    <tripinfo id="flow_5_phase1_S_straight.4" depart="53.00" departLane="N_in_1" departPos="160.30" departSpeed="10.86" departDelay="0.08" arrival="76.00" arrivalLane="S_out_1" arrivalPos="189.60" arrivalSpeed="12.96" duration="23.00" routeLength="239.70" waitingTime="0.00" waitingCount="0" stopTime="0.00" timeLoss="4.65" rerouteNo="0" devices="vehroute_flow_5_phase1_S_straight.4 tripinfo_flow_5_phase1_S_straight.4" vType="container" speedFactor="0.97" vaporized=""/>
    <tripinfo id="flow_6_phase1_S_left.1" depart="34.00" departLane="S_in_0" departPos="4.52" departSpeed="14.19" departDelay="0.55" arrival="79.00" arrivalLane="W_out_1" arrivalPos="189.60" arrivalSpeed="13.57" duration="45.00" routeLength="394.03" waitingTime="9.00" waitingCount="2" stopTime="0.00" timeLoss="16.27" rerouteNo="0" devices="vehroute_flow_6_phase1_S_left.1 tripinfo_flow_6_phase1_S_left.1" vType="moto" speedFactor="1.05" vaporized=""/>
    <tripinfo id="flow_7_phase1_S_right.1" depart="33.00" departLane="S_in_1" departPos="128.68" departSpeed="2.32" departDelay="0.51" arrival="84.00" arrivalLane="E_out_0" arrivalPos="189.60" arrivalSpeed="10.84" duration="51.00" routeLength="259.55" waitingTime="11.00" waitingCount="1" stopTime="0.00" timeLoss="26.06" rerouteNo="0" devices="vehroute_flow_7_phase1_S_right.1 tripinfo_flow_7_phase1_S_right.1" vType="container" speedFactor="0.78" vaporized=""/>
    <tripinfo id="flow_11_phase1_E_right.2" depart="65.00" departLane="E_in_0" departPos="155.68" departSpeed="10.19" departDelay="0.02" arrival="85.00" arrivalLane="N_out_0" arrivalPos="189.60" arrivalSpeed="14.94" duration="20.00" routeLength="232.55" waitingTime="0.00" waitingCount="0" stopTime="0.00" timeLoss="4.36" rerouteNo="0" devices="vehroute_flow_11_phase1_E_right.2 tripinfo_flow_11_phase1_E_right.2" vType="moto" speedFactor="1.14" vaporized=""/>
    <tripinfo id="flow_9_phase1_E_straight.2" depart="26.00" departLane="W_in_1" departPos="12.70" departSpeed="12.82" departDelay="0.25" arrival="89.00" arrivalLane="E_out_0" arrivalPos="189.60" arrivalSpeed="12.78" duration="63.00" routeLength="387.30" waitingTime="20.00" waitingCount="3" stopTime="0.00" timeLoss="34.15" rerouteNo="0" devices="vehroute_flow_9_phase1_E_straight.2 tripinfo_flow_9_phase1_E_straight.2" vType="moto" speedFactor="0.99" vaporized=""/>
    <tripinfo id="flow_13_phase1_W_straight.5" depart="67.00" departLane="E_in_0" departPos="87.76" departSpeed="10.87" departDelay="0.08" arrival="92.00" arrivalLane="W_out_1" arrivalPos="189.60" arrivalSpeed="15.09" duration="25.00" routeLength="312.24" waitingTime="0.00" waitingCount="0" stopTime="0.00" timeLoss="4.83" rerouteNo="0" devices="vehroute_flow_13_phase1_W_straight.5 tripinfo_flow_13_phase1_W_straight.5" vType="moto" speedFactor="1.14" vaporized=""/>
    <tripinfo id="flow_13_phase1_W_straight.4" depart="54.00" departLane="E_in_1" departPos="65.33" departSpeed="10.93" departDelay="0.46" arrival="94.00" arrivalLane="W_out_0" arrivalPos="189.60" arrivalSpeed="11.98" duration="40.00" routeLength="334.67" waitingTime="1.00" waitingCount="1" stopTime="0.00" timeLoss="11.81" rerouteNo="0" devices="vehroute_flow_13_phase1_W_straight.4 tripinfo_flow_13_phase1_W_straight.4" vType="bus" speedFactor="0.87" vaporized=""/>
    <tripinfo id="flow_9_phase1_E_straight.3" depart="39.00" departLane="W_in_0" departPos="19.25" departSpeed="4.06" departDelay="0.37" arrival="97.00" arrivalLane="E_out_0" arrivalPos="189.60" arrivalSpeed="11.40" duration="58.00" routeLength="380.75" waitingTime="10.00" waitingCount="1" stopTime="0.00" timeLoss="24.97" rerouteNo="0" devices="vehroute_flow_9_phase1_E_straight.3 tripinfo_flow_9_phase1_E_straight.3" vType="bus" speedFactor="0.85" vaporized=""/>
    <tripinfo id="flow_10_phase1_E_left.2" depart="67.00" departLane="E_in_0" departPos="92.42" departSpeed="14.78" departDelay="0.00" arrival="97.00" arrivalLane="S_out_1" arrivalPos="189.60" arrivalSpeed="14.62" duration="30.00" routeLength="306.13" waitingTime="3.00" waitingCount="1" stopTime="0.00" timeLoss="7.92" rerouteNo="0" devices="vehroute_flow_10_phase1_E_left.2 tripinfo_flow_10_phase1_E_left.2" vType="moto" speedFactor="1.07" vaporized=""/>
    <tripinfo id="flow_2_phase1_N_left.0" depart="0.00" departLane="W_in_1" departPos="8.27" departSpeed="8.33" departDelay="0.00" arrival="98.00" arrivalLane="W_out_1" arrivalPos="189.60" arrivalSpeed="13.88" duration="98.00" routeLength="375.60" waitingTime="45.00" waitingCount="6" stopTime="0.00" timeLoss="69.57" rerouteNo="0" devices="vehroute_flow_2_phase1_N_left.0 tripinfo_flow_2_phase1_N_left.0" vType="moto" speedFactor="1.02" vaporized=""/>
    <tripinfo id="flow_14_phase1_W_left.0" depart="0.00" departLane="W_in_1" departPos="42.31" departSpeed="3.71" departDelay="0.00" arrival="98.00" arrivalLane="N_out_1" arrivalPos="189.60" arrivalSpeed="13.32" duration="98.00" routeLength="356.24" waitingTime="49.00" waitingCount="6" stopTime="0.00" timeLoss="71.53" rerouteNo="0" devices="vehroute_flow_14_phase1_W_left.0 tripinfo_flow_14_phase1_W_left.0" vType="moto" speedFactor="1.01" vaporized=""/>
    <tripinfo id="flow_1_phase1_N_straight.4" depart="55.00" departLane="W_in_1" departPos="111.69" departSpeed="5.51" departDelay="0.94" arrival="98.00" arrivalLane="S_out_0" arrivalPos="189.60" arrivalSpeed="12.75" duration="43.00" routeLength="276.54" waitingTime="8.00" waitingCount="1" stopTime="0.00" timeLoss="20.07" rerouteNo="0" devices="vehroute_flow_1_phase1_N_straight.4 tripinfo_flow_1_phase1_N_straight.4" vType="truck" speedFactor="0.92" vaporized=""/>
    <tripinfo id="flow_7_phase1_S_right.2" depart="65.00" departLane="S_in_1" departPos="129.09" departSpeed="5.42" departDelay="0.01" arrival="100.00" arrivalLane="E_out_0" arrivalPos="189.60" arrivalSpeed="13.29" duration="35.00" routeLength="259.14" waitingTime="9.00" waitingCount="1" stopTime="0.00" timeLoss="15.78" rerouteNo="0" devices="vehroute_flow_7_phase1_S_right.2 tripinfo_flow_7_phase1_S_right.2" vType="moto" speedFactor="1.03" vaporized=""/>
    <tripinfo id="flow_5_phase1_S_straight.5" depart="67.00" departLane="N_in_1" departPos="78.09" departSpeed="6.94" departDelay="0.85" arrival="101.00" arrivalLane="S_out_0" arrivalPos="189.60" arrivalSpeed="13.04" duration="34.00" routeLength="321.91" waitingTime="2.00" waitingCount="1" stopTime="0.00" timeLoss="11.24" rerouteNo="0" devices="vehroute_flow_5_phase1_S_straight.5 tripinfo_flow_5_phase1_S_straight.5" vType="moto" speedFactor="1.03" vaporized=""/>
    <tripinfo id="flow_5_phase1_S_straight.6" depart="80.00" departLane="N_in_1" departPos="174.35" departSpeed="2.98" departDelay="0.62" arrival="101.00" arrivalLane="S_out_1" arrivalPos="189.60" arrivalSpeed="14.20" duration="21.00" routeLength="225.65" waitingTime="0.00" waitingCount="0" stopTime="0.00" timeLoss="5.93" rerouteNo="0" devices="vehroute_flow_5_phase1_S_straight.6 tripinfo_flow_5_phase1_S_straight.6" vType="moto" speedFactor="1.10" vaporized=""/>
    <tripinfo id="flow_4_phase1_N_uturn.1" depart="67.00" departLane="N_in_1" departPos="174.17" departSpeed="8.58" departDelay="0.96" arrival="102.00" arrivalLane="N_out_1" arrivalPos="189.60" arrivalSpeed="12.29" duration="35.00" routeLength="209.70" waitingTime="11.00" waitingCount="1" stopTime="0.00" timeLoss="17.40" rerouteNo="0" devices="vehroute_flow_4_phase1_N_uturn.1 tripinfo_flow_4_phase1_N_uturn.1" vType="moto" speedFactor="0.94" vaporized=""/>
    <tripinfo id="flow_6_phase1_S_left.2" depart="67.00" departLane="S_in_1" departPos="155.35" departSpeed="10.56" departDelay="0.10" arrival="110.00" arrivalLane="W_out_1" arrivalPos="189.60" arrivalSpeed="11.65" duration="43.00" routeLength="243.20" waitingTime="11.00" waitingCount="2" stopTime="0.00" timeLoss="22.38" rerouteNo="0" devices="vehroute_flow_6_phase1_S_left.2 tripinfo_flow_6_phase1_S_left.2" vType="truck" speedFactor="0.89" vaporized=""/>
    <tripinfo id="flow_2_phase1_N_left.1" depart="33.00" departLane="W_in_1" departPos="66.71" departSpeed="11.27" departDelay="0.32" arrival="112.00" arrivalLane="W_out_1" arrivalPos="189.60" arrivalSpeed="14.52" duration="79.00" routeLength="317.16" waitingTime="35.00" waitingCount="5" stopTime="0.00" timeLoss="57.84" rerouteNo="0" devices="vehroute_flow_2_phase1_N_left.1 tripinfo_flow_2_phase1_N_left.1" vType="moto" speedFactor="1.12" vaporized=""/>
    <tripinfo id="flow_3_phase1_N_right.2" depart="69.00" departLane="E_in_1" departPos="29.88" departSpeed="12.31" departDelay="0.63" arrival="114.00" arrivalLane="W_out_0" arrivalPos="189.60" arrivalSpeed="14.99" duration="45.00" routeLength="370.12" waitingTime="9.00" waitingCount="1" stopTime="0.00" timeLoss="19.92" rerouteNo="0" devices="vehroute_flow_3_phase1_N_right.2 tripinfo_flow_3_phase1_N_right.2" vType="moto" speedFactor="1.10" vaporized=""/>
    <tripinfo id="flow_9_phase1_E_straight.7" depart="91.00" departLane="W_in_0" departPos="174.06" departSpeed="3.09" departDelay="0.86" arrival="114.00" arrivalLane="E_out_0" arrivalPos="189.60" arrivalSpeed="12.92" duration="23.00" routeLength="225.94" waitingTime="0.00" waitingCount="0" stopTime="0.00" timeLoss="6.33" rerouteNo="0" devices="vehroute_flow_9_phase1_E_straight.7 tripinfo_flow_9_phase1_E_straight.7" vType="moto" speedFactor="1.01" vaporized=""/>
    <tripinfo id="flow_12_phase1_E_uturn.1" depart="66.00" departLane="E_in_1" departPos="65.57" departSpeed="2.22" departDelay="0.19" arrival="115.00" arrivalLane="E_out_1" arrivalPos="189.60" arrivalSpeed="13.05" duration="49.00" routeLength="318.30" waitingTime="16.00" waitingCount="1" stopTime="0.00" timeLoss="23.79" rerouteNo="0" devices="vehroute_flow_12_phase1_E_uturn.1 tripinfo_flow_12_phase1_E_uturn.1" vType="moto" speedFactor="0.95" vaporized=""/>
    <tripinfo id="flow_13_phase1_W_straight.6" depart="81.00" departLane="E_in_0" departPos="161.31" departSpeed="3.40" departDelay="0.70" arrival="117.00" arrivalLane="W_out_1" arrivalPos="189.60" arrivalSpeed="12.62" duration="36.00" routeLength="238.69" waitingTime="8.00" waitingCount="1" stopTime="0.00" timeLoss="17.94" rerouteNo="0" devices="vehroute_flow_13_phase1_W_straight.6 tripinfo_flow_13_phase1_W_straight.6" vType="car" speedFactor="0.98" vaporized=""/>
    <tripinfo id="flow_9_phase1_E_straight.4" depart="52.00" departLane="W_in_1" departPos="74.07" departSpeed="0.56" departDelay="0.49" arrival="124.00" arrivalLane="E_out_0" arrivalPos="189.60" arrivalSpeed="12.81" duration="72.00" routeLength="325.93" waitingTime="19.00" waitingCount="3" stopTime="0.00" timeLoss="47.16" rerouteNo="0" devices="vehroute_flow_9_phase1_E_straight.4 tripinfo_flow_9_phase1_E_straight.4" vType="bus" speedFactor="0.95" vaporized=""/>
    <tripinfo id="flow_7_phase1_S_right.3" depart="98.00" departLane="S_in_0" departPos="1.39" departSpeed="6.77" departDelay="0.52" arrival="130.00" arrivalLane="E_out_0" arrivalPos="189.60" arrivalSpeed="14.76" duration="32.00" routeLength="386.84" waitingTime="0.00" waitingCount="0" stopTime="0.00" timeLoss="4.06" rerouteNo="0" devices="vehroute_flow_7_phase1_S_right.3 tripinfo_flow_7_phase1_S_right.3" vType="moto" speedFactor="1.07" vaporized=""/>
    <tripinfo id="flow_5_phase1_S_straight.8" depart="106.00" departLane="N_in_0" departPos="157.03" departSpeed="11.00" departDelay="0.16" arrival="130.00" arrivalLane="S_out_1" arrivalPos="189.60" arrivalSpeed="15.49" duration="24.00" routeLength="242.97" waitingTime="2.00" waitingCount="1" stopTime="0.00" timeLoss="8.40" rerouteNo="0" devices="vehroute_flow_5_phase1_S_straight.8 tripinfo_flow_5_phase1_S_straight.8" vType="emergency" speedFactor="1.14" vaporized=""/>
    <tripinfo id="flow_14_phase1_W_left.1" depart="35.00" departLane="W_in_1" departPos="56.18" departSpeed="5.79" departDelay="0.53" arrival="131.00" arrivalLane="N_out_1" arrivalPos="189.60" arrivalSpeed="12.41" duration="96.00" routeLength="342.37" waitingTime="31.00" waitingCount="6" stopTime="0.00" timeLoss="68.31" rerouteNo="0" devices="vehroute_flow_14_phase1_W_left.1 tripinfo_flow_14_phase1_W_left.1" vType="container" speedFactor="0.91" vaporized=""/>
    <tripinfo id="flow_5_phase1_S_straight.7" depart="93.00" departLane="N_in_1" departPos="76.47" departSpeed="9.96" departDelay="0.39" arrival="135.00" arrivalLane="S_out_0" arrivalPos="189.60" arrivalSpeed="12.29" duration="42.00" routeLength="323.53" waitingTime="3.00" waitingCount="1" stopTime="0.00" timeLoss="16.01" rerouteNo="0" devices="vehroute_flow_5_phase1_S_straight.7 tripinfo_flow_5_phase1_S_straight.7" vType="bus" speedFactor="0.90" vaporized=""/>
    <tripinfo id="flow_6_phase1_S_left.3" depart="101.00" departLane="S_in_1" departPos="2.21" departSpeed="8.06" departDelay="0.64" arrival="136.00" arrivalLane="W_out_1" arrivalPos="189.60" arrivalSpeed="14.72" duration="35.00" routeLength="396.34" waitingTime="3.00" waitingCount="1" stopTime="0.00" timeLoss="8.23" rerouteNo="0" devices="vehroute_flow_6_phase1_S_left.3 tripinfo_flow_6_phase1_S_left.3" vType="car" speedFactor="1.10" vaporized=""/>
    <tripinfo id="flow_15_phase1_W_right.2" depart="66.00" departLane="W_in_0" departPos="64.25" departSpeed="5.81" departDelay="0.32" arrival="141.00" arrivalLane="S_out_0" arrivalPos="189.60" arrivalSpeed="11.13" duration="75.00" routeLength="323.98" waitingTime="37.00" waitingCount="2" stopTime="0.00" timeLoss="47.60" rerouteNo="0" devices="vehroute_flow_15_phase1_W_right.2 tripinfo_flow_15_phase1_W_right.2" vType="moto" speedFactor="0.89" vaporized=""/>
    <tripinfo id="flow_11_phase1_E_right.3" depart="98.00" departLane="E_in_0" departPos="81.58" departSpeed="0.98" departDelay="0.53" arrival="142.00" arrivalLane="N_out_0" arrivalPos="189.60" arrivalSpeed="10.37" duration="44.00" routeLength="306.65" waitingTime="10.00" waitingCount="1" stopTime="0.00" timeLoss="16.85" rerouteNo="0" devices="vehroute_flow_11_phase1_E_right.3 tripinfo_flow_11_phase1_E_right.3" vType="moto" speedFactor="0.83" vaporized=""/>
    <tripinfo id="flow_9_phase1_E_straight.5" depart="65.00" departLane="W_in_1" departPos="19.51" departSpeed="7.94" departDelay="0.62" arrival="143.00" arrivalLane="E_out_0" arrivalPos="189.60" arrivalSpeed="13.31" duration="78.00" routeLength="380.49" waitingTime="30.00" waitingCount="2" stopTime="0.00" timeLoss="50.41" rerouteNo="0" devices="vehroute_flow_9_phase1_E_straight.5 tripinfo_flow_9_phase1_E_straight.5" vType="moto" speedFactor="1.00" vaporized=""/>
    <tripinfo id="flow_1_phase1_N_straight.5" depart="68.00" departLane="W_in_1" departPos="84.30" departSpeed="5.75" departDelay="0.42" arrival="143.00" arrivalLane="S_out_0" arrivalPos="189.60" arrivalSpeed="11.35" duration="75.00" routeLength="303.93" waitingTime="33.00" waitingCount="2" stopTime="0.00" timeLoss="49.62" rerouteNo="0" devices="vehroute_flow_1_phase1_N_straight.5 tripinfo_flow_1_phase1_N_straight.5" vType="moto" speedFactor="0.90" vaporized=""/>
    <tripinfo id="flow_9_phase1_E_straight.6" depart="78.00" departLane="W_in_0" departPos="42.85" departSpeed="1.39" departDelay="0.74" arrival="145.00" arrivalLane="E_out_0" arrivalPos="189.60" arrivalSpeed="13.43" duration="67.00" routeLength="357.15" waitingTime="24.00" waitingCount="2" stopTime="0.00" timeLoss="41.19" rerouteNo="0" devices="vehroute_flow_9_phase1_E_straight.6 tripinfo_flow_9_phase1_E_straight.6" vType="moto" speedFactor="1.02" vaporized=""/>
    <tripinfo id="flow_13_phase1_W_straight.7" depart="94.00" departLane="E_in_0" departPos="6.57" departSpeed="6.34" departDelay="0.31" arrival="146.00" arrivalLane="W_out_0" arrivalPos="189.60" arrivalSpeed="10.37" duration="52.00" routeLength="393.43" waitingTime="8.00" waitingCount="1" stopTime="0.00" timeLoss="15.93" rerouteNo="0" devices="vehroute_flow_13_phase1_W_straight.7 tripinfo_flow_13_phase1_W_straight.7" vType="moto" speedFactor="0.80" vaporized=""/>