<?xml version="1.0" encoding="UTF-8"?>

<!-- generated on 2025-12-08 21:29:39 by Eclipse SUMO sumo Version 1.18.0
<configuration xmlns:xsi="http://www.w3.org/2001/XMLSchema-instance" xsi:noNamespaceSchemaLocation="http://sumo.dlr.de/xsd/sumoConfiguration.xsd">

    <input>
        <net-file value="/workspace/nets/60p2k/net.net.xml"/>
        <route-files value="/workspace/nets/60p2k/route_temp_244_130720908769792_63793894.rou.xml"/>
    </input>

    <output>
        <summary-output value="results/summary_ep_20.xml"/>
        <tripinfo-output value="results/tripinfo_ep_20.xml"/>
        <vehroute-output value="results/vehroute_ep_20.xml"/>
    </output>

    <time>
        <begin value="0"/>
    </time>

    <report>
        <verbose value="true"/>
        <no-step-log value="true"/>
    </report>

    <traci_server>
        <remote-port value="46351"/>
    </traci_server>

    <gui_only>
        <gui-settings-file value="/workspace/nets/60p2k/gui-settings.xml"/>
        <quit-on-end value="true"/>
    </gui_only>

</configuration>
-->

<tripinfos xmlns:xsi="http://www.w3.org/2001/XMLSchema-instance" xsi:noNamespaceSchemaLocation="http://sumo.dlr.de/xsd/tripinfo_file.xsd">
    <tripinfo id="flow_5_phase1_S_straight.0" depart="0.00" departLane="S_in_1" departPos="107.37" departSpeed="7.21" departDelay="0.00" arrival="22.00" arrivalLane="N_out_1" arrivalPos="189.60" arrivalSpeed="15.39" duration="22.00" routeLength="292.63" waitingTime="0.00" waitingCount="0" stopTime="0.00" timeLoss="2.97" rerouteNo="0" devices="vehroute_flow_5_phase1_S_straight.0 tripinfo_flow_5_phase1_S_straight.0" vType="moto" speedFactor="1.15" vaporized=""/>
    <tripinfo id="flow_6_phase1_S_left.0" depart="0.00" departLane="S_in_1" departPos="166.01" departSpeed="0.74" departDelay="0.00" arrival="23.00" arrivalLane="N_out_0" arrivalPos="189.60" arrivalSpeed="11.44" duration="23.00" routeLength="233.99" waitingTime="0.00" waitingCount="0" stopTime="0.00" timeLoss="3.45" rerouteNo="0" devices="vehroute_flow_6_phase1_S_left.0 tripinfo_flow_6_phase1_S_left.0" vType="moto" speedFactor="0.88" vaporized=""/>
    <tripinfo id="flow_3_phase1_N_right.0" depart="0.00" departLane="N_in_0" departPos="103.38" departSpeed="3.75" departDelay="0.00" arrival="24.00" arrivalLane="W_out_0" arrivalPos="189.60" arrivalSpeed="14.93" duration="24.00" routeLength="284.85" waitingTime="0.00" waitingCount="0" stopTime="0.00" timeLoss="4.55" rerouteNo="0" devices="vehroute_flow_3_phase1_N_right.0 tripinfo_flow_3_phase1_N_right.0" vType="car" speedFactor="1.09" vaporized=""/>
    <tripinfo id="flow_4_phase1_N_uturn.0" depart="0.00" departLane="N_in_1" departPos="127.60" departSpeed="0.08" departDelay="0.00" arrival="27.00" arrivalLane="N_out_1" arrivalPos="189.60" arrivalSpeed="12.56" duration="27.00" routeLength="256.27" waitingTime="0.00" waitingCount="0" stopTime="0.00" timeLoss="6.39" rerouteNo="0" devices="vehroute_flow_4_phase1_N_uturn.0 tripinfo_flow_4_phase1_N_uturn.0" vType="car" speedFactor="0.92" vaporized=""/>
    <tripinfo id="flow_14_phase1_W_left.0" depart="0.00" departLane="N_in_1" departPos="42.31" departSpeed="3.71" departDelay="0.00" arrival="30.00" arrivalLane="E_out_1" arrivalPos="189.60" arrivalSpeed="13.19" duration="30.00" routeLength="356.24" waitingTime="0.00" waitingCount="0" stopTime="0.00" timeLoss="3.65" rerouteNo="0" devices="vehroute_flow_14_phase1_W_left.0 tripinfo_flow_14_phase1_W_left.0" vType="moto" speedFactor="1.01" vaporized=""/>
    <tripinfo id="flow_16_phase1_W_uturn.0" depart="0.00" departLane="W_in_1" departPos="126.68" departSpeed="1.28" departDelay="0.00" arrival="36.00" arrivalLane="W_out_1" arrivalPos="189.60" arrivalSpeed="14.00" duration="36.00" routeLength="257.19" waitingTime="7.00" waitingCount="1" stopTime="0.00" timeLoss="16.82" rerouteNo="0" devices="vehroute_flow_16_phase1_W_uturn.0 tripinfo_flow_16_phase1_W_uturn.0" vType="moto" speedFactor="1.04" vaporized=""/>
    <tripinfo id="flow_8_phase1_S_uturn.0" depart="0.00" departLane="E_in_0" departPos="120.11" departSpeed="4.48" departDelay="0.00" arrival="38.00" arrivalLane="N_out_0" arrivalPos="189.60" arrivalSpeed="14.29" duration="38.00" routeLength="268.12" waitingTime="9.00" waitingCount="1" stopTime="0.00" timeLoss="18.70" rerouteNo="0" devices="vehroute_flow_8_phase1_S_uturn.0 tripinfo_flow_8_phase1_S_uturn.0" vType="moto" speedFactor="1.05" vaporized=""/>
    <tripinfo id="flow_2_phase1_N_left.0" depart="0.00" departLane="W_in_1" departPos="8.27" departSpeed="8.33" departDelay="0.00" arrival="41.00" arrivalLane="N_out_1" arrivalPos="189.60" arrivalSpeed="13.91" duration="41.00" routeLength="390.28" waitingTime="2.00" waitingCount="1" stopTime="0.00" timeLoss="12.64" rerouteNo="0" devices="vehroute_flow_2_phase1_N_left.0 tripinfo_flow_2_phase1_N_left.0" vType="moto" speedFactor="1.02" vaporized=""/>
    <tripinfo id="flow_9_phase1_E_straight.0" depart="0.00" departLane="E_in_0" departPos="168.29" departSpeed="9.83" departDelay="0.00" arrival="41.00" arrivalLane="W_out_0" arrivalPos="189.60" arrivalSpeed="11.95" duration="41.00" routeLength="231.71" waitingTime="12.00" waitingCount="1" stopTime="0.00" timeLoss="21.91" rerouteNo="0" devices="vehroute_flow_9_phase1_E_straight.0 tripinfo_flow_9_phase1_E_straight.0" vType="truck" speedFactor="0.90" vaporized=""/>
    <tripinfo id="flow_11_phase1_E_right.0" depart="0.00" departLane="W_in_1" departPos="144.95" departSpeed="4.02" departDelay="0.00" arrival="41.00" arrivalLane="S_out_0" arrivalPos="189.60" arrivalSpeed="12.74" duration="41.00" routeLength="243.28" waitingTime="8.00" waitingCount="1" stopTime="0.00" timeLoss="21.20" rerouteNo="0" devices="vehroute_flow_11_phase1_E_right.0 tripinfo_flow_11_phase1_E_right.0" vType="bus" speedFactor="0.96" vaporized=""/>
    <tripinfo id="flow_13_phase1_W_straight.1" depart="14.00" departLane="W_in_1" departPos="121.65" departSpeed="2.86" departDelay="0.62" arrival="41.00" arrivalLane="E_out_0" arrivalPos="189.60" arrivalSpeed="14.51" duration="27.00" routeLength="278.35" waitingTime="0.00" waitingCount="0" stopTime="0.00" timeLoss="8.81" rerouteNo="0" devices="vehroute_flow_13_phase1_W_straight.1 tripinfo_flow_13_phase1_W_straight.1" vType="car" speedFactor="1.12" vaporized=""/>
    <tripinfo id="flow_12_phase1_E_uturn.0" depart="0.00" departLane="W_in_0" departPos="5.65" departSpeed="13.76" departDelay="0.00" arrival="42.00" arrivalLane="E_out_1" arrivalPos="189.60" arrivalSpeed="13.31" duration="42.00" routeLength="394.35" waitingTime="2.00" waitingCount="1" stopTime="0.00" timeLoss="14.44" rerouteNo="0" devices="vehroute_flow_12_phase1_E_uturn.0 tripinfo_flow_12_phase1_E_uturn.0" vType="moto" speedFactor="1.03" vaporized=""/>
    <tripinfo id="flow_9_phase1_E_straight.1" depart="13.00" departLane="E_in_0" departPos="131.13" departSpeed="9.54" departDelay="0.12" arrival="43.00" arrivalLane="W_out_0" arrivalPos="189.60" arrivalSpeed="15.08" duration="30.00" routeLength="268.87" waitingTime="0.00" waitingCount="0" stopTime="0.00" timeLoss="12.49" rerouteNo="0" devices="vehroute_flow_9_phase1_E_straight.1 tripinfo_flow_9_phase1_E_straight.1" vType="moto" speedFactor="1.16" vaporized=""/>
    <tripinfo id="flow_15_phase1_W_right.0" depart="0.00" departLane="W_in_1" departPos="45.77" departSpeed="6.73" departDelay="0.00" arrival="44.00" arrivalLane="S_out_0" arrivalPos="189.60" arrivalSpeed="11.71" duration="44.00" routeLength="342.46" waitingTime="3.00" waitingCount="1" stopTime="0.00" timeLoss="13.56" rerouteNo="0" devices="vehroute_flow_15_phase1_W_right.0 tripinfo_flow_15_phase1_W_right.0" vType="moto" speedFactor="0.85" vaporized=""/>
    <tripinfo id="flow_10_phase1_E_left.0" depart="0.00" departLane="E_in_0" departPos="44.88" departSpeed="7.69" departDelay="0.00" arrival="50.00" arrivalLane="S_out_1" arrivalPos="189.60" arrivalSpeed="13.77" duration="50.00" routeLength="353.67" waitingTime="7.00" waitingCount="2" stopTime="0.00" timeLoss="23.70" rerouteNo="0" devices="vehroute_flow_10_phase1_E_left.0 tripinfo_flow_10_phase1_E_left.0" vType="truck" speedFactor="1.02" vaporized=""/>
    <tripinfo id="flow_5_phase1_S_straight.1" depart="14.00" departLane="S_in_1" departPos="31.93" departSpeed="9.28" departDelay="0.77" arrival="51.00" arrivalLane="N_out_1" arrivalPos="189.60" arrivalSpeed="15.72" duration="37.00" routeLength="368.07" waitingTime="2.00" waitingCount="1" stopTime="0.00" timeLoss="13.04" rerouteNo="0" devices="vehroute_flow_5_phase1_S_straight.1 tripinfo_flow_5_phase1_S_straight.1" vType="moto" speedFactor="1.19" vaporized=""/>
    <tripinfo id="flow_1_phase1_N_straight.1" depart="14.00" departLane="N_in_1" departPos="58.36" departSpeed="11.64" departDelay="0.48" arrival="53.00" arrivalLane="S_out_0" arrivalPos="189.60" arrivalSpeed="10.94" duration="39.00" routeLength="341.64" waitingTime="2.00" waitingCount="1" stopTime="0.00" timeLoss="10.57" rerouteNo="0" devices="vehroute_flow_1_phase1_N_straight.1 tripinfo_flow_1_phase1_N_straight.1" vType="moto" speedFactor="0.87" vaporized=""/>
    <tripinfo id="flow_1_phase1_N_straight.2" depart="28.00" departLane="N_in_1" departPos="107.53" departSpeed="1.11" departDelay="0.97" arrival="55.00" arrivalLane="S_out_1" arrivalPos="189.60" arrivalSpeed="12.75" duration="27.00" routeLength="292.47" waitingTime="0.00" waitingCount="0" stopTime="0.00" timeLoss="3.47" rerouteNo="0" devices="vehroute_flow_1_phase1_N_straight.2 tripinfo_flow_1_phase1_N_straight.2" vType="moto" speedFactor="0.93" vaporized=""/>
    <tripinfo id="flow_1_phase1_N_straight.0" depart="0.00" departLane="N_in_0" departPos="8.62" departSpeed="8.51" departDelay="0.00" arrival="56.00" arrivalLane="S_out_0" arrivalPos="189.60" arrivalSpeed="11.55" duration="56.00" routeLength="391.38" waitingTime="11.00" waitingCount="1" stopTime="0.00" timeLoss="22.70" rerouteNo="0" devices="vehroute_flow_1_phase1_N_straight.0 tripinfo_flow_1_phase1_N_straight.0" vType="bus" speedFactor="0.86" vaporized=""/>
    <tripinfo id="flow_7_phase1_S_right.0" depart="0.00" departLane="S_in_0" departPos="8.76" departSpeed="8.07" departDelay="0.00" arrival="57.00" arrivalLane="E_out_0" arrivalPos="189.60" arrivalSpeed="11.18" duration="57.00" routeLength="379.47" waitingTime="12.00" waitingCount="1" stopTime="0.00" timeLoss="23.31" rerouteNo="0" devices="vehroute_flow_7_phase1_S_right.0 tripinfo_flow_7_phase1_S_right.0" vType="container" speedFactor="0.85" vaporized=""/>
    <tripinfo id="flow_5_phase1_S_straight.2" depart="27.00" departLane="S_in_1" departPos="12.70" departSpeed="12.41" departDelay="0.54" arrival="58.00" arrivalLane="N_out_1" arrivalPos="189.60" arrivalSpeed="12.34" duration="31.00" routeLength="387.30" waitingTime="0.00" waitingCount="0" stopTime="0.00" timeLoss="1.42" rerouteNo="0" devices="vehroute_flow_5_phase1_S_straight.2 tripinfo_flow_5_phase1_S_straight.2" vType="moto" speedFactor="0.96" vaporized=""/>
    <tripinfo id="flow_3_phase1_N_right.1" depart="35.00" departLane="N_in_0" departPos="166.00" departSpeed="1.28" departDelay="0.82" arrival="59.00" arrivalLane="W_out_0" arrivalPos="189.60" arrivalSpeed="11.05" duration="24.00" routeLength="222.23" waitingTime="0.00" waitingCount="0" stopTime="0.00" timeLoss="4.75" rerouteNo="0" devices="vehroute_flow_3_phase1_N_right.1 tripinfo_flow_3_phase1_N_right.1" vType="moto" speedFactor="0.88" vaporized=""/>
    <tripinfo id="flow_9_phase1_E_straight.2" depart="26.00" departLane="E_in_1" departPos="52.87" departSpeed="0.38" departDelay="0.25" arrival="62.00" arrivalLane="W_out_0" arrivalPos="189.60" arrivalSpeed="13.14" duration="36.00" routeLength="347.13" waitingTime="2.00" waitingCount="1" stopTime="0.00" timeLoss="10.85" rerouteNo="0" devices="vehroute_flow_9_phase1_E_straight.2 tripinfo_flow_9_phase1_E_straight.2" vType="moto" speedFactor="0.99" vaporized=""/>
    <tripinfo id="flow_13_phase1_W_straight.2" depart="27.00" departLane="W_in_1" departPos="59.51" departSpeed="13.32" departDelay="0.23" arrival="67.00" arrivalLane="E_out_0" arrivalPos="189.60" arrivalSpeed="13.12" duration="40.00" routeLength="340.49" waitingTime="4.00" waitingCount="1" stopTime="0.00" timeLoss="14.57" rerouteNo="0" devices="vehroute_flow_13_phase1_W_straight.2 tripinfo_flow_13_phase1_W_straight.2" vType="bus" speedFactor="0.97" vaporized=""/>
    <tripinfo id="flow_2_phase1_N_left.1" depart="33.00" departLane="W_in_0" departPos="8.88" departSpeed="2.82" departDelay="0.32" arrival="67.00" arrivalLane="N_out_1" arrivalPos="189.60" arrivalSpeed="15.50" duration="34.00" routeLength="389.67" waitingTime="0.00" waitingCount="0" stopTime="0.00" timeLoss="7.85" rerouteNo="0" devices="vehroute_flow_2_phase1_N_left.1 tripinfo_flow_2_phase1_N_left.1" vType="moto" speedFactor="1.12" vaporized=""/>
    <tripinfo id="flow_9_phase1_E_straight.3" depart="39.00" departLane="E_in_0" departPos="86.42" departSpeed="8.41" departDelay="0.37" arrival="67.00" arrivalLane="W_out_0" arrivalPos="189.60" arrivalSpeed="11.25" duration="28.00" routeLength="313.58" waitingTime="0.00" waitingCount="0" stopTime="0.00" timeLoss="1.23" rerouteNo="0" devices="vehroute_flow_9_phase1_E_straight.3 tripinfo_flow_9_phase1_E_straight.3" vType="bus" speedFactor="0.85" vaporized=""/>
    <tripinfo id="flow_15_phase1_W_right.1" depart="33.00" departLane="W_in_1" departPos="97.23" departSpeed="5.84" departDelay="0.16" arrival="68.00" arrivalLane="S_out_0" arrivalPos="189.60" arrivalSpeed="14.50" duration="35.00" routeLength="291.00" waitingTime="3.00" waitingCount="1" stopTime="0.00" timeLoss="14.69" rerouteNo="0" devices="vehroute_flow_15_phase1_W_right.1 tripinfo_flow_15_phase1_W_right.1" vType="moto" speedFactor="1.08" vaporized=""/>
    <tripinfo id="flow_13_phase1_W_straight.3" depart="41.00" departLane="W_in_1" departPos="88.42" departSpeed="1.48" departDelay="0.85" arrival="68.00" arrivalLane="E_out_1" arrivalPos="189.60" arrivalSpeed="14.28" duration="27.00" routeLength="311.58" waitingTime="0.00" waitingCount="0" stopTime="0.00" timeLoss="5.60" rerouteNo="0" devices="vehroute_flow_13_phase1_W_straight.3 tripinfo_flow_13_phase1_W_straight.3" vType="car" speedFactor="1.05" vaporized=""/>
    <tripinfo id="flow_13_phase1_W_straight.0" depart="0.00" departLane="W_in_0" departPos="77.99" departSpeed="3.79" departDelay="0.00" arrival="72.00" arrivalLane="E_out_0" arrivalPos="189.60" arrivalSpeed="10.94" duration="72.00" routeLength="322.01" waitingTime="16.00" waitingCount="1" stopTime="0.00" timeLoss="43.51" rerouteNo="0" devices="vehroute_flow_13_phase1_W_straight.0 tripinfo_flow_13_phase1_W_straight.0" vType="container" speedFactor="0.82" vaporized=""/>
    <tripinfo id="flow_1_phase1_N_straight.3" depart="41.00" departLane="N_in_0" departPos="65.01" departSpeed="6.58" departDelay="0.45" arrival="74.00" arrivalLane="S_out_0" arrivalPos="189.60" arrivalSpeed="15.51" duration="33.00" routeLength="334.99" waitingTime="3.00" waitingCount="1" stopTime="0.00" timeLoss="11.12" rerouteNo="0" devices="vehroute_flow_1_phase1_N_straight.3 tripinfo_flow_1_phase1_N_straight.3" vType="moto" speedFactor="1.20" vaporized=""/>
    <tripinfo id="flow_5_phase1_S_straight.3" depart="40.00" departLane="S_in_0" departPos="184.19" departSpeed="8.58" departDelay="0.31" arrival="76.00" arrivalLane="N_out_0" arrivalPos="189.60" arrivalSpeed="14.23" duration="36.00" routeLength="215.81" waitingTime="14.00" waitingCount="1" stopTime="0.00" timeLoss="21.35" rerouteNo="0" devices="vehroute_flow_5_phase1_S_straight.3 tripinfo_flow_5_phase1_S_straight.3" vType="moto" speedFactor="1.08" vaporized=""/>
    <tripinfo id="flow_6_phase1_S_left.1" depart="34.00" departLane="S_in_1" departPos="79.10" departSpeed="8.50" departDelay="0.55" arrival="77.00" arrivalLane="N_out_0" arrivalPos="189.60" arrivalSpeed="14.50" duration="43.00" routeLength="320.90" waitingTime="10.00" waitingCount="1" stopTime="0.00" timeLoss="20.14" rerouteNo="0" devices="vehroute_flow_6_phase1_S_left.1 tripinfo_flow_6_phase1_S_left.1" vType="moto" speedFactor="1.05" vaporized=""/>
    <tripinfo id="flow_10_phase1_E_left.1" depart="34.00" departLane="E_in_0" departPos="4.52" departSpeed="10.41" departDelay="0.50" arrival="80.00" arrivalLane="S_out_0" arrivalPos="189.60" arrivalSpeed="10.38" duration="46.00" routeLength="394.03" waitingTime="0.00" waitingCount="0" stopTime="0.00" timeLoss="7.70" rerouteNo="0" devices="vehroute_flow_10_phase1_E_left.1 tripinfo_flow_10_phase1_E_left.1" vType="truck" speedFactor="0.77" vaporized=""/>
    <tripinfo id="flow_5_phase1_S_straight.4" depart="53.00" departLane="S_in_0" departPos="135.24" departSpeed="1.68" departDelay="0.08" arrival="82.00" arrivalLane="N_out_1" arrivalPos="189.60" arrivalSpeed="13.46" duration="29.00" routeLength="264.76" waitingTime="0.00" waitingCount="0" stopTime="0.00" timeLoss="8.42" rerouteNo="0" devices="vehroute_flow_5_phase1_S_straight.4 tripinfo_flow_5_phase1_S_straight.4" vType="container" speedFactor="0.97" vaporized=""/>
    <tripinfo id="flow_7_phase1_S_right.1" depart="33.00" departLane="S_in_1" departPos="66.71" departSpeed="7.87" departDelay="0.51" arrival="85.00" arrivalLane="E_out_0" arrivalPos="189.60" arrivalSpeed="10.40" duration="52.00" routeLength="321.52" waitingTime="10.00" waitingCount="1" stopTime="0.00" timeLoss="21.54" rerouteNo="0" devices="vehroute_flow_7_phase1_S_right.1 tripinfo_flow_7_phase1_S_right.1" vType="container" speedFactor="0.78" vaporized=""/>
    <tripinfo id="flow_11_phase1_E_right.1" depart="33.00" departLane="W_in_1" departPos="80.24" departSpeed="3.06" departDelay="0.51" arrival="87.00" arrivalLane="S_out_0" arrivalPos="189.60" arrivalSpeed="13.67" duration="54.00" routeLength="307.99" waitingTime="14.00" waitingCount="2" stopTime="0.00" timeLoss="31.77" rerouteNo="0" devices="vehroute_flow_11_phase1_E_right.1 tripinfo_flow_11_phase1_E_right.1" vType="moto" speedFactor="1.04" vaporized=""/>
    <tripinfo id="flow_11_phase1_E_right.2" depart="65.00" departLane="W_in_1" departPos="111.69" departSpeed="6.85" departDelay="0.02" arrival="90.00" arrivalLane="S_out_0" arrivalPos="189.60" arrivalSpeed="15.02" duration="25.00" routeLength="276.54" waitingTime="0.00" waitingCount="0" stopTime="0.00" timeLoss="5.82" rerouteNo="0" devices="vehroute_flow_11_phase1_E_right.2 tripinfo_flow_11_phase1_E_right.2" vType="moto" speedFactor="1.14" vaporized=""/>
    <tripinfo id="flow_12_phase1_E_uturn.1" depart="66.00" departLane="W_in_0" departPos="155.68" departSpeed="8.48" departDelay="0.19" arrival="91.00" arrivalLane="E_out_0" arrivalPos="189.60" arrivalSpeed="12.57" duration="25.00" routeLength="244.32" waitingTime="0.00" waitingCount="0" stopTime="0.00" timeLoss="5.91" rerouteNo="0" devices="vehroute_flow_12_phase1_E_uturn.1 tripinfo_flow_12_phase1_E_uturn.1" vType="moto" speedFactor="0.95" vaporized=""/>
    <tripinfo id="flow_13_phase1_W_straight.5" depart="67.00" departLane="W_in_1" departPos="172.37" departSpeed="3.22" departDelay="0.08" arrival="92.00" arrivalLane="E_out_0" arrivalPos="189.60" arrivalSpeed="15.23" duration="25.00" routeLength="227.63" waitingTime="2.00" waitingCount="1" stopTime="0.00" timeLoss="10.32" rerouteNo="0" devices="vehroute_flow_13_phase1_W_straight.5 tripinfo_flow_13_phase1_W_straight.5" vType="moto" speedFactor="1.14" vaporized=""/>
    <tripinfo id="flow_14_phase1_W_left.1" depart="35.00" departLane="N_in_0" departPos="93.41" departSpeed="11.76" departDelay="0.53" arrival="94.00" arrivalLane="E_out_1" arrivalPos="189.60" arrivalSpeed="12.44" duration="59.00" routeLength="305.14" waitingTime="18.00" waitingCount="2" stopTime="0.00" timeLoss="33.86" rerouteNo="0" devices="vehroute_flow_14_phase1_W_left.1 tripinfo_flow_14_phase1_W_left.1" vType="container" speedFactor="0.91" vaporized=""/>
    <tripinfo id="flow_9_phase1_E_straight.4" depart="52.00" departLane="E_in_1" departPos="53.32" departSpeed="10.34" departDelay="0.49" arrival="96.00" arrivalLane="W_out_0" arrivalPos="189.60" arrivalSpeed="12.84" duration="44.00" routeLength="346.68" waitingTime="3.00" waitingCount="1" stopTime="0.00" timeLoss="17.54" rerouteNo="0" devices="vehroute_flow_9_phase1_E_straight.4 tripinfo_flow_9_phase1_E_straight.4" vType="bus" speedFactor="0.95" vaporized=""/>
    <tripinfo id="flow_13_phase1_W_straight.4" depart="54.00" departLane="W_in_0" departPos="70.46" departSpeed="10.65" departDelay="0.46" arrival="98.00" arrivalLane="E_out_0" arrivalPos="189.60" arrivalSpeed="11.59" duration="44.00" routeLength="329.54" waitingTime="6.00" waitingCount="2" stopTime="0.00" timeLoss="16.41" rerouteNo="0" devices="vehroute_flow_13_phase1_W_straight.4 tripinfo_flow_13_phase1_W_straight.4" vType="bus" speedFactor="0.87" vaporized=""/>
    <tripinfo id="flow_2_phase1_N_left.2" depart="66.00" departLane="W_in_1" departPos="129.09" departSpeed="5.80" departDelay="0.64" arrival="98.00" arrivalLane="N_out_1" arrivalPos="189.60" arrivalSpeed="15.23" duration="32.00" routeLength="269.46" waitingTime="1.00" waitingCount="1" stopTime="0.00" timeLoss="13.85" rerouteNo="0" devices="vehroute_flow_2_phase1_N_left.2 tripinfo_flow_2_phase1_N_left.2" vType="emergency" speedFactor="1.10" vaporized=""/>
    <tripinfo id="flow_16_phase1_W_uturn.1" depart="67.00" departLane="W_in_0" departPos="161.41" departSpeed="1.65" departDelay="0.80" arrival="98.00" arrivalLane="W_out_1" arrivalPos="189.60" arrivalSpeed="14.07" duration="31.00" routeLength="222.46" waitingTime="1.00" waitingCount="1" stopTime="0.00" timeLoss="13.75" rerouteNo="0" devices="vehroute_flow_16_phase1_W_uturn.1 tripinfo_flow_16_phase1_W_uturn.1" vType="moto" speedFactor="1.04" vaporized=""/>
    <tripinfo id="flow_10_phase1_E_left.2" depart="67.00" departLane="E_in_1" departPos="174.17" departSpeed="9.64" departDelay="0.00" arrival="99.00" arrivalLane="S_out_1" arrivalPos="189.60" arrivalSpeed="13.60" duration="32.00" routeLength="224.38" waitingTime="8.00" waitingCount="1" stopTime="0.00" timeLoss="15.97" rerouteNo="0" devices="vehroute_flow_10_phase1_E_left.2 tripinfo_flow_10_phase1_E_left.2" vType="moto" speedFactor="1.07" vaporized=""/>
    <tripinfo id="flow_8_phase1_S_uturn.1" depart="66.00" departLane="E_in_1" departPos="19.51" departSpeed="7.49" departDelay="0.07" arrival="100.00" arrivalLane="N_out_0" arrivalPos="189.60" arrivalSpeed="12.76" duration="34.00" routeLength="368.72" waitingTime="0.00" waitingCount="0" stopTime="0.00" timeLoss="5.02" rerouteNo="0" devices="vehroute_flow_8_phase1_S_uturn.1 tripinfo_flow_8_phase1_S_uturn.1" vType="truck" speedFactor="0.94" vaporized=""/>
    <tripinfo id="flow_15_phase1_W_right.2" depart="66.00" departLane="W_in_1" departPos="2.77" departSpeed="6.78" departDelay="0.32" arrival="102.00" arrivalLane="S_out_0" arrivalPos="189.60" arrivalSpeed="12.13" duration="36.00" routeLength="385.46" waitingTime="0.00" waitingCount="0" stopTime="0.00" timeLoss="3.31" rerouteNo="0" devices="vehroute_flow_15_phase1_W_right.2 tripinfo_flow_15_phase1_W_right.2" vType="moto" speedFactor="0.89" vaporized=""/>
    <tripinfo id="flow_9_phase1_E_straight.5" depart="65.00" departLane="E_in_1" departPos="65.33" departSpeed="12.53" departDelay="0.62" arrival="103.00" arrivalLane="W_out_1" arrivalPos="189.60" arrivalSpeed="12.69" duration="38.00" routeLength="334.67" waitingTime="6.00" waitingCount="1" stopTime="0.00" timeLoss="13.39" rerouteNo="0" devices="vehroute_flow_9_phase1_E_straight.5 tripinfo_flow_9_phase1_E_straight.5" vType="moto" speedFactor="1.00" vaporized=""/>
    <tripinfo id="flow_9_phase1_E_straight.6" depart="78.00" departLane="E_in_0" departPos="61.32" departSpeed="6.33" departDelay="0.74" arrival="105.00" arrivalLane="W_out_0" arrivalPos="189.60" arrivalSpeed="13.13" duration="27.00" routeLength="338.68" waitingTime="0.00" waitingCount="0" stopTime="0.00" timeLoss="2.26" rerouteNo="0" devices="vehroute_flow_9_phase1_E_straight.6 tripinfo_flow_9_phase1_E_straight.6" vType="moto" speedFactor="1.02" vaporized=""/>
    <tripinfo id="flow_13_phase1_W_straight.6" depart="81.00" departLane="W_in_1" departPos="109.89" departSpeed="2.14" departDelay="0.70" arrival="106.00" arrivalLane="E_out_1" arrivalPos="189.60" arrivalSpeed="12.51" duration="25.00" routeLength="290.11" waitingTime="0.00" waitingCount="0" stopTime="0.00" timeLoss="2.92" rerouteNo="0" devices="vehroute_flow_13_phase1_W_straight.6 tripinfo_flow_13_phase1_W_straight.6" vType="car" speedFactor="0.98" vaporized=""/>
    <tripinfo id="flow_9_phase1_E_straight.7" depart="91.00" departLane="E_in_0" departPos="43.18" departSpeed="3.17" departDelay="0.86" arrival="120.00" arrivalLane="W_out_0" arrivalPos="189.60" arrivalSpeed="13.78" duration="29.00" routeLength="356.82" waitingTime="0.00" waitingCount="0" stopTime="0.00" timeLoss="3.00" rerouteNo="0" devices="vehroute_flow_9_phase1_E_straight.7 tripinfo_flow_9_phase1_E_straight.7" vType="moto" speedFactor="1.01" vaporized=""/>
    <tripinfo id="flow_10_phase1_E_left.3" depart="101.00" departLane="E_in_1" departPos="140.12" departSpeed="11.74" departDelay="0.50" arrival="123.00" arrivalLane="S_out_1" arrivalPos="189.60" arrivalSpeed="14.58" duration="22.00" routeLength="258.43" waitingTime="0.00" waitingCount="0" stopTime="0.00" timeLoss="3.62" rerouteNo="0" devices="vehroute_flow_10_phase1_E_left.3 tripinfo_flow_10_phase1_E_left.3" vType="truck" speedFactor="1.07" vaporized=""/>
    <tripinfo id="flow_2_phase1_N_left.3" depart="99.00" departLane="W_in_0" departPos="140.51" departSpeed="9.25" departDelay="0.96" arrival="124.00" arrivalLane="N_out_1" arrivalPos="189.60" arrivalSpeed="12.08" duration="25.00" routeLength="258.04" waitingTime="0.00" waitingCount="0" stopTime="0.00" timeLoss="3.15" rerouteNo="0" devices="vehroute_flow_2_phase1_N_left.3 tripinfo_flow_2_phase1_N_left.3" vType="moto" speedFactor="0.89" vaporized=""/>
    <tripinfo id="flow_13_phase1_W_straight.7" depart="94.00" departLane="W_in_1" departPos="88.32" departSpeed="9.46" departDelay="0.31" arrival="125.00" arrivalLane="E_out_0" arrivalPos="189.60" arrivalSpeed="10.11" duration="31.00" routeLength="311.68" waitingTime="0.00" waitingCount="0" stopTime="0.00" timeLoss="2.96" rerouteNo="0" devices="vehroute_flow_13_phase1_W_straight.7 tripinfo_flow_13_phase1_W_straight.7" vType="moto" speedFactor="0.80" vaporized=""/>
    <tripinfo id="flow_11_phase1_E_right.3" depart="98.00" departLane="W_in_0" departPos="107.99" departSpeed="0.98" departDelay="0.53" arrival="128.00" arrivalLane="S_out_0" arrivalPos="189.60" arrivalSpeed="11.48" duration="30.00" routeLength="280.24" waitingTime="0.00" waitingCount="0" stopTime="0.00" timeLoss="4.59" rerouteNo="0" devices="vehroute_flow_11_phase1_E_right.3 tripinfo_flow_11_phase1_E_right.3" vType="moto" speedFactor="0.83" vaporized=""/>
    <tripinfo id="flow_7_phase1_S_right.2" depart="65.00" departLane="S_in_1" departPos="160.30" departSpeed="13.98" departDelay="0.01" arrival="130.00" arrivalLane="E_out_0" arrivalPos="189.60" arrivalSpeed="13.52" duration="65.00" routeLength="227.93" waitingTime="42.00" waitingCount="1" stopTime="0.00" timeLoss="48.36" rerouteNo="0" devices="vehroute_flow_7_phase1_S_right.2 tripinfo_flow_7_phase1_S_right.2" vType="moto" speedFactor="1.03" vaporized=""/>
    <tripinfo id="flow_5_phase1_S_straight.5" depart="67.00" departLane="S_in_1" departPos="65.57" departSpeed="2.39" departDelay="0.85" arrival="131.00" arrivalLane="N_out_0" arrivalPos="189.60" arrivalSpeed="13.26" duration="64.00" routeLength="334.43" waitingTime="31.00" waitingCount="1" stopTime="0.00" timeLoss="39.85" rerouteNo="0" devices="vehroute_flow_5_phase1_S_straight.5 tripinfo_flow_5_phase1_S_straight.5" vType="moto" speedFactor="1.03" vaporized=""/>
    <tripinfo id="flow_5_phase1_S_straight.6" depart="80.00" departLane="S_in_0" departPos="69.49" departSpeed="6.79" departDelay="0.62" arrival="132.00" arrivalLane="N_out_1" arrivalPos="189.60" arrivalSpeed="14.17" duration="52.00" routeLength="330.51" waitingTime="21.00" waitingCount="1" stopTime="0.00" timeLoss="29.87" rerouteNo="0" devices="vehroute_flow_5_phase1_S_straight.6 tripinfo_flow_5_phase1_S_straight.6" vType="moto" speedFactor="1.10" vaporized=""/>
    <tripinfo id="flow_3_phase1_N_right.2" depart="69.00" departLane="N_in_0" departPos="87.76" departSpeed="12.03" departDelay="0.63" arrival="134.00" arrivalLane="W_out_0" arrivalPos="189.60" arrivalSpeed="15.30" duration="65.00" routeLength="300.47" waitingTime="35.00" waitingCount="1" stopTime="0.00" timeLoss="44.39" rerouteNo="0" devices="vehroute_flow_3_phase1_N_right.2 tripinfo_flow_3_phase1_N_right.2" vType="moto" speedFactor="1.10" vaporized=""/>
    <tripinfo id="flow_1_phase1_N_straight.7" depart="95.00" departLane="N_in_0" departPos="41.83" departSpeed="3.52" departDelay="0.39" arrival="136.00" arrivalLane="S_out_1" arrivalPos="189.60" arrivalSpeed="14.11" duration="41.00" routeLength="358.17" waitingTime="5.00" waitingCount="1" stopTime="0.00" timeLoss="16.50" rerouteNo="0" devices="vehroute_flow_1_phase1_N_straight.7 tripinfo_flow_1_phase1_N_straight.7" vType="moto" speedFactor="1.06" vaporized=""/>
    <tripinfo id="flow_7_phase1_S_right.3" depart="98.00" departLane="S_in_1" departPos="150.35" departSpeed="8.44" departDelay="0.52" arrival="136.00" arrivalLane="E_out_0" arrivalPos="189.60" arrivalSpeed="14.12" duration="38.00" routeLength="237.88" waitingTime="10.00" waitingCount="1" stopTime="0.00" timeLoss="20.99" rerouteNo="0" devices="vehroute_flow_7_phase1_S_right.3 tripinfo_flow_7_phase1_S_right.3" vType="moto" speedFactor="1.07" vaporized=""/>
    <tripinfo id="flow_1_phase1_N_straight.4" depart="55.00" departLane="N_in_1" departPos="74.07" departSpeed="0.54" departDelay="0.94" arrival="137.00" arrivalLane="S_out_0" arrivalPos="189.60" arrivalSpeed="12.15" duration="82.00" routeLength="325.93" waitingTime="39.00" waitingCount="1" stopTime="0.00" timeLoss="56.14" rerouteNo="0" devices="vehroute_flow_1_phase1_N_straight.4 tripinfo_flow_1_phase1_N_straight.4" vType="truck" speedFactor="0.92" vaporized=""/>