<?xml version="1.0" encoding="UTF-8"?>

<!-- generated on 2025-12-08 21:27:02 by Eclipse SUMO sumo Version 1.18.0
<configuration xmlns:xsi="http://www.w3.org/2001/XMLSchema-instance" xsi:noNamespaceSchemaLocation="http://sumo.dlr.de/xsd/sumoConfiguration.xsd">

    <input>
        <net-file value="/workspace/nets/60p2k/net.net.xml"/>
        <route-files value="/workspace/nets/60p2k/route_temp_244_130720908769792_63793894.rou.xml"/>
    </input>

    <output>
        <summary-output value="results/summary_ep_14.xml"/>
        <tripinfo-output value="results/tripinfo_ep_14.xml"/>
        <vehroute-output value="results/vehroute_ep_14.xml"/>
    </output>

    <time>
        <begin value="0"/>
    </time>

    <report>
        <verbose value="true"/>
        <no-step-log value="true"/>
    </report>

    <traci_server>
        <remote-port value="51321"/>
    </traci_server>

    <gui_only>
        <gui-settings-file value="/workspace/nets/60p2k/gui-settings.xml"/>
        <quit-on-end value="true"/>
    </gui_only>

</configuration>
-->

<tripinfos xmlns:xsi="http://www.w3.org/2001/XMLSchema-instance" xsi:noNamespaceSchemaLocation="http://sumo.dlr.de/xsd/tripinfo_file.xsd">
    <tripinfo id="flow_14_phase1_W_left.0" depart="0.00" departLane="S_in_1" departPos="182.88" departSpeed="5.61" departDelay="0.00" arrival="19.00" arrivalLane="S_out_1" arrivalPos="189.60" arrivalSpeed="13.05" duration="19.00" routeLength="200.99" waitingTime="0.00" waitingCount="0" stopTime="0.00" timeLoss="3.42" rerouteNo="0" devices="vehroute_flow_14_phase1_W_left.0 tripinfo_flow_14_phase1_W_left.0" vType="moto" speedFactor="1.01" vaporized=""/>
    <tripinfo id="flow_3_phase1_N_right.0" depart="0.00" departLane="N_in_0" departPos="103.38" departSpeed="3.75" departDelay="0.00" arrival="24.00" arrivalLane="W_out_0" arrivalPos="189.60" arrivalSpeed="14.93" duration="24.00" routeLength="284.85" waitingTime="0.00" waitingCount="0" stopTime="0.00" timeLoss="4.55" rerouteNo="0" devices="vehroute_flow_3_phase1_N_right.0 tripinfo_flow_3_phase1_N_right.0" vType="car" speedFactor="1.09" vaporized=""/>
    <tripinfo id="flow_8_phase1_S_uturn.0" depart="0.00" departLane="S_in_0" departPos="120.11" departSpeed="4.48" departDelay="0.00" arrival="24.00" arrivalLane="S_out_1" arrivalPos="189.60" arrivalSpeed="13.96" duration="24.00" routeLength="263.76" waitingTime="0.00" waitingCount="0" stopTime="0.00" timeLoss="5.27" rerouteNo="0" devices="vehroute_flow_8_phase1_S_uturn.0 tripinfo_flow_8_phase1_S_uturn.0" vType="moto" speedFactor="1.05" vaporized=""/>
    <tripinfo id="flow_6_phase1_S_left.0" depart="0.00" departLane="S_in_1" departPos="166.01" departSpeed="0.74" departDelay="0.00" arrival="25.00" arrivalLane="W_out_1" arrivalPos="189.60" arrivalSpeed="11.57" duration="25.00" routeLength="232.54" waitingTime="0.00" waitingCount="0" stopTime="0.00" timeLoss="4.33" rerouteNo="0" devices="vehroute_flow_6_phase1_S_left.0 tripinfo_flow_6_phase1_S_left.0" vType="moto" speedFactor="0.88" vaporized=""/>
    <tripinfo id="flow_4_phase1_N_uturn.0" depart="0.00" departLane="N_in_1" departPos="127.60" departSpeed="0.08" departDelay="0.00" arrival="27.00" arrivalLane="N_out_1" arrivalPos="189.60" arrivalSpeed="11.91" duration="27.00" routeLength="256.27" waitingTime="0.00" waitingCount="0" stopTime="0.00" timeLoss="6.22" rerouteNo="0" devices="vehroute_flow_4_phase1_N_uturn.0 tripinfo_flow_4_phase1_N_uturn.0" vType="car" speedFactor="0.92" vaporized=""/>
    <tripinfo id="flow_2_phase1_N_left.0" depart="0.00" departLane="N_in_1" departPos="8.27" departSpeed="8.33" departDelay="0.00" arrival="31.00" arrivalLane="E_out_1" arrivalPos="189.60" arrivalSpeed="13.27" duration="31.00" routeLength="390.28" waitingTime="0.00" waitingCount="0" stopTime="0.00" timeLoss="2.74" rerouteNo="0" devices="vehroute_flow_2_phase1_N_left.0 tripinfo_flow_2_phase1_N_left.0" vType="moto" speedFactor="1.02" vaporized=""/>
    <tripinfo id="flow_5_phase1_S_straight.0" depart="0.00" departLane="E_in_1" departPos="107.37" departSpeed="7.21" departDelay="0.00" arrival="35.00" arrivalLane="W_out_0" arrivalPos="189.60" arrivalSpeed="15.53" duration="35.00" routeLength="292.63" waitingTime="7.00" waitingCount="1" stopTime="0.00" timeLoss="16.20" rerouteNo="0" devices="vehroute_flow_5_phase1_S_straight.0 tripinfo_flow_5_phase1_S_straight.0" vType="moto" speedFactor="1.15" vaporized=""/>
    <tripinfo id="flow_15_phase1_W_right.0" depart="0.00" departLane="W_in_0" departPos="108.38" departSpeed="2.63" departDelay="0.00" arrival="39.00" arrivalLane="S_out_0" arrivalPos="189.60" arrivalSpeed="11.26" duration="39.00" routeLength="279.85" waitingTime="6.00" waitingCount="1" stopTime="0.00" timeLoss="13.78" rerouteNo="0" devices="vehroute_flow_15_phase1_W_right.0 tripinfo_flow_15_phase1_W_right.0" vType="moto" speedFactor="0.85" vaporized=""/>
    <tripinfo id="flow_9_phase1_E_straight.1" depart="13.00" departLane="E_in_0" departPos="131.13" departSpeed="9.54" departDelay="0.12" arrival="39.00" arrivalLane="W_out_1" arrivalPos="189.60" arrivalSpeed="15.20" duration="26.00" routeLength="268.87" waitingTime="0.00" waitingCount="0" stopTime="0.00" timeLoss="9.19" rerouteNo="0" devices="vehroute_flow_9_phase1_E_straight.1 tripinfo_flow_9_phase1_E_straight.1" vType="moto" speedFactor="1.16" vaporized=""/>
    <tripinfo id="flow_9_phase1_E_straight.0" depart="0.00" departLane="E_in_0" departPos="168.29" departSpeed="9.83" departDelay="0.00" arrival="41.00" arrivalLane="W_out_0" arrivalPos="189.60" arrivalSpeed="12.16" duration="41.00" routeLength="231.71" waitingTime="12.00" waitingCount="1" stopTime="0.00" timeLoss="21.95" rerouteNo="0" devices="vehroute_flow_9_phase1_E_straight.0 tripinfo_flow_9_phase1_E_straight.0" vType="truck" speedFactor="0.90" vaporized=""/>
    <tripinfo id="flow_11_phase1_E_right.0" depart="0.00" departLane="W_in_1" departPos="144.95" departSpeed="4.02" departDelay="0.00" arrival="42.00" arrivalLane="E_out_0" arrivalPos="189.60" arrivalSpeed="12.82" duration="42.00" routeLength="255.05" waitingTime="7.00" waitingCount="1" stopTime="0.00" timeLoss="22.81" rerouteNo="0" devices="vehroute_flow_11_phase1_E_right.0 tripinfo_flow_11_phase1_E_right.0" vType="bus" speedFactor="0.96" vaporized=""/>
    <tripinfo id="flow_13_phase1_W_straight.1" depart="14.00" departLane="W_in_1" departPos="121.65" departSpeed="2.86" departDelay="0.62" arrival="42.00" arrivalLane="E_out_1" arrivalPos="189.60" arrivalSpeed="15.07" duration="28.00" routeLength="278.35" waitingTime="0.00" waitingCount="0" stopTime="0.00" timeLoss="9.49" rerouteNo="0" devices="vehroute_flow_13_phase1_W_straight.1 tripinfo_flow_13_phase1_W_straight.1" vType="car" speedFactor="1.12" vaporized=""/>
    <tripinfo id="flow_5_phase1_S_straight.1" depart="14.00" departLane="E_in_1" departPos="31.93" departSpeed="9.28" departDelay="0.77" arrival="43.00" arrivalLane="W_out_0" arrivalPos="189.60" arrivalSpeed="15.22" duration="29.00" routeLength="368.07" waitingTime="0.00" waitingCount="0" stopTime="0.00" timeLoss="5.25" rerouteNo="0" devices="vehroute_flow_5_phase1_S_straight.1 tripinfo_flow_5_phase1_S_straight.1" vType="moto" speedFactor="1.19" vaporized=""/>
    <tripinfo id="flow_16_phase1_W_uturn.0" depart="0.00" departLane="W_in_0" departPos="126.68" departSpeed="11.71" departDelay="0.00" arrival="46.00" arrivalLane="W_out_1" arrivalPos="189.60" arrivalSpeed="13.14" duration="46.00" routeLength="257.19" waitingTime="18.00" waitingCount="2" stopTime="0.00" timeLoss="26.66" rerouteNo="0" devices="vehroute_flow_16_phase1_W_uturn.0 tripinfo_flow_16_phase1_W_uturn.0" vType="moto" speedFactor="1.04" vaporized=""/>
    <tripinfo id="flow_10_phase1_E_left.0" depart="0.00" departLane="E_in_0" departPos="44.88" departSpeed="7.69" departDelay="0.00" arrival="51.00" arrivalLane="S_out_1" arrivalPos="189.60" arrivalSpeed="13.45" duration="51.00" routeLength="353.67" waitingTime="7.00" waitingCount="2" stopTime="0.00" timeLoss="24.79" rerouteNo="0" devices="vehroute_flow_10_phase1_E_left.0 tripinfo_flow_10_phase1_E_left.0" vType="truck" speedFactor="1.02" vaporized=""/>
    <tripinfo id="flow_1_phase1_N_straight.1" depart="14.00" departLane="N_in_1" departPos="58.36" departSpeed="11.64" departDelay="0.48" arrival="51.00" arrivalLane="S_out_0" arrivalPos="189.60" arrivalSpeed="11.34" duration="37.00" routeLength="341.64" waitingTime="0.00" waitingCount="0" stopTime="0.00" timeLoss="8.13" rerouteNo="0" devices="vehroute_flow_1_phase1_N_straight.1 tripinfo_flow_1_phase1_N_straight.1" vType="moto" speedFactor="0.87" vaporized=""/>
    <tripinfo id="flow_1_phase1_N_straight.2" depart="28.00" departLane="N_in_1" departPos="107.53" departSpeed="1.11" departDelay="0.97" arrival="55.00" arrivalLane="S_out_1" arrivalPos="189.60" arrivalSpeed="11.67" duration="27.00" routeLength="292.47" waitingTime="0.00" waitingCount="0" stopTime="0.00" timeLoss="3.76" rerouteNo="0" devices="vehroute_flow_1_phase1_N_straight.2 tripinfo_flow_1_phase1_N_straight.2" vType="moto" speedFactor="0.93" vaporized=""/>
    <tripinfo id="flow_7_phase1_S_right.0" depart="0.00" departLane="S_in_0" departPos="8.76" departSpeed="8.07" departDelay="0.00" arrival="56.00" arrivalLane="E_out_0" arrivalPos="189.60" arrivalSpeed="11.33" duration="56.00" routeLength="379.47" waitingTime="12.00" waitingCount="1" stopTime="0.00" timeLoss="22.97" rerouteNo="0" devices="vehroute_flow_7_phase1_S_right.0 tripinfo_flow_7_phase1_S_right.0" vType="container" speedFactor="0.85" vaporized=""/>
    <tripinfo id="flow_1_phase1_N_straight.0" depart="0.00" departLane="N_in_0" departPos="8.62" departSpeed="8.51" departDelay="0.00" arrival="57.00" arrivalLane="S_out_0" arrivalPos="189.60" arrivalSpeed="11.37" duration="57.00" routeLength="391.38" waitingTime="11.00" waitingCount="1" stopTime="0.00" timeLoss="23.91" rerouteNo="0" devices="vehroute_flow_1_phase1_N_straight.0 tripinfo_flow_1_phase1_N_straight.0" vType="bus" speedFactor="0.86" vaporized=""/>
    <tripinfo id="flow_3_phase1_N_right.1" depart="35.00" departLane="N_in_0" departPos="166.00" departSpeed="1.28" departDelay="0.82" arrival="59.00" arrivalLane="W_out_0" arrivalPos="189.60" arrivalSpeed="11.99" duration="24.00" routeLength="222.23" waitingTime="0.00" waitingCount="0" stopTime="0.00" timeLoss="4.73" rerouteNo="0" devices="vehroute_flow_3_phase1_N_right.1 tripinfo_flow_3_phase1_N_right.1" vType="moto" speedFactor="0.88" vaporized=""/>
    <tripinfo id="flow_9_phase1_E_straight.2" depart="26.00" departLane="E_in_1" departPos="52.87" departSpeed="0.38" departDelay="0.25" arrival="62.00" arrivalLane="W_out_0" arrivalPos="189.60" arrivalSpeed="13.71" duration="36.00" routeLength="347.13" waitingTime="1.00" waitingCount="1" stopTime="0.00" timeLoss="10.83" rerouteNo="0" devices="vehroute_flow_9_phase1_E_straight.2 tripinfo_flow_9_phase1_E_straight.2" vType="moto" speedFactor="0.99" vaporized=""/>
    <tripinfo id="flow_5_phase1_S_straight.2" depart="27.00" departLane="E_in_1" departPos="12.70" departSpeed="12.41" departDelay="0.54" arrival="67.00" arrivalLane="W_out_0" arrivalPos="189.60" arrivalSpeed="12.87" duration="40.00" routeLength="387.30" waitingTime="2.00" waitingCount="1" stopTime="0.00" timeLoss="10.38" rerouteNo="0" devices="vehroute_flow_5_phase1_S_straight.2 tripinfo_flow_5_phase1_S_straight.2" vType="moto" speedFactor="0.96" vaporized=""/>
    <tripinfo id="flow_13_phase1_W_straight.2" depart="27.00" departLane="W_in_1" departPos="59.51" departSpeed="13.32" departDelay="0.23" arrival="67.00" arrivalLane="E_out_0" arrivalPos="189.60" arrivalSpeed="13.14" duration="40.00" routeLength="340.49" waitingTime="2.00" waitingCount="1" stopTime="0.00" timeLoss="13.82" rerouteNo="0" devices="vehroute_flow_13_phase1_W_straight.2 tripinfo_flow_13_phase1_W_straight.2" vType="bus" speedFactor="0.97" vaporized=""/>
    <tripinfo id="flow_15_phase1_W_right.1" depart="33.00" departLane="W_in_1" departPos="97.23" departSpeed="5.84" departDelay="0.16" arrival="67.00" arrivalLane="S_out_0" arrivalPos="189.60" arrivalSpeed="14.30" duration="34.00" routeLength="291.00" waitingTime="3.00" waitingCount="1" stopTime="0.00" timeLoss="14.07" rerouteNo="0" devices="vehroute_flow_15_phase1_W_right.1 tripinfo_flow_15_phase1_W_right.1" vType="moto" speedFactor="1.08" vaporized=""/>
    <tripinfo id="flow_11_phase1_E_right.1" depart="33.00" departLane="W_in_1" departPos="80.24" departSpeed="3.06" departDelay="0.51" arrival="68.00" arrivalLane="E_out_1" arrivalPos="189.60" arrivalSpeed="13.11" duration="35.00" routeLength="319.76" waitingTime="0.00" waitingCount="0" stopTime="0.00" timeLoss="12.02" rerouteNo="0" devices="vehroute_flow_11_phase1_E_right.1 tripinfo_flow_11_phase1_E_right.1" vType="moto" speedFactor="1.04" vaporized=""/>
    <tripinfo id="flow_13_phase1_W_straight.3" depart="41.00" departLane="W_in_1" departPos="23.57" departSpeed="10.37" departDelay="0.85" arrival="69.00" arrivalLane="E_out_1" arrivalPos="189.60" arrivalSpeed="13.90" duration="28.00" routeLength="376.43" waitingTime="0.00" waitingCount="0" stopTime="0.00" timeLoss="2.02" rerouteNo="0" devices="vehroute_flow_13_phase1_W_straight.3 tripinfo_flow_13_phase1_W_straight.3" vType="car" speedFactor="1.05" vaporized=""/>
    <tripinfo id="flow_13_phase1_W_straight.0" depart="0.00" departLane="W_in_0" departPos="24.53" departSpeed="3.79" departDelay="0.00" arrival="72.00" arrivalLane="E_out_0" arrivalPos="189.60" arrivalSpeed="10.87" duration="72.00" routeLength="375.47" waitingTime="16.00" waitingCount="2" stopTime="0.00" timeLoss="38.49" rerouteNo="0" devices="vehroute_flow_13_phase1_W_straight.0 tripinfo_flow_13_phase1_W_straight.0" vType="container" speedFactor="0.82" vaporized=""/>
    <tripinfo id="flow_2_phase1_N_left.1" depart="33.00" departLane="N_in_0" departPos="8.88" departSpeed="2.82" departDelay="0.32" arrival="74.00" arrivalLane="E_out_1" arrivalPos="189.60" arrivalSpeed="14.48" duration="41.00" routeLength="389.67" waitingTime="6.00" waitingCount="1" stopTime="0.00" timeLoss="14.68" rerouteNo="0" devices="vehroute_flow_2_phase1_N_left.1 tripinfo_flow_2_phase1_N_left.1" vType="moto" speedFactor="1.12" vaporized=""/>
    <tripinfo id="flow_9_phase1_E_straight.3" depart="39.00" departLane="E_in_1" departPos="108.76" departSpeed="10.34" departDelay="0.37" arrival="75.00" arrivalLane="W_out_0" arrivalPos="189.60" arrivalSpeed="11.31" duration="36.00" routeLength="291.24" waitingTime="0.00" waitingCount="0" stopTime="0.00" timeLoss="11.14" rerouteNo="0" devices="vehroute_flow_9_phase1_E_straight.3 tripinfo_flow_9_phase1_E_straight.3" vType="bus" speedFactor="0.85" vaporized=""/>
    <tripinfo id="flow_1_phase1_N_straight.3" depart="41.00" departLane="N_in_0" departPos="148.08" departSpeed="10.59" departDelay="0.45" arrival="75.00" arrivalLane="S_out_0" arrivalPos="189.60" arrivalSpeed="15.93" duration="34.00" routeLength="251.92" waitingTime="9.00" waitingCount="1" stopTime="0.00" timeLoss="18.24" rerouteNo="0" devices="vehroute_flow_1_phase1_N_straight.3 tripinfo_flow_1_phase1_N_straight.3" vType="moto" speedFactor="1.20" vaporized=""/>
    <tripinfo id="flow_12_phase1_E_uturn.0" depart="0.00" departLane="E_in_0" departPos="5.65" departSpeed="13.76" departDelay="0.00" arrival="79.00" arrivalLane="E_out_1" arrivalPos="189.60" arrivalSpeed="13.82" duration="79.00" routeLength="378.22" waitingTime="31.00" waitingCount="4" stopTime="0.00" timeLoss="51.10" rerouteNo="0" devices="vehroute_flow_12_phase1_E_uturn.0 tripinfo_flow_12_phase1_E_uturn.0" vType="moto" speedFactor="1.03" vaporized=""/>
    <tripinfo id="flow_1_phase1_N_straight.4" depart="55.00" departLane="N_in_1" departPos="171.48" departSpeed="1.96" departDelay="0.94" arrival="79.00" arrivalLane="S_out_1" arrivalPos="189.60" arrivalSpeed="12.50" duration="24.00" routeLength="228.52" waitingTime="0.00" waitingCount="0" stopTime="0.00" timeLoss="5.97" rerouteNo="0" devices="vehroute_flow_1_phase1_N_straight.4 tripinfo_flow_1_phase1_N_straight.4" vType="truck" speedFactor="0.92" vaporized=""/>
    <tripinfo id="flow_7_phase1_S_right.1" depart="33.00" departLane="S_in_1" departPos="66.71" departSpeed="7.87" departDelay="0.51" arrival="84.00" arrivalLane="E_out_0" arrivalPos="189.60" arrivalSpeed="10.48" duration="51.00" routeLength="321.52" waitingTime="9.00" waitingCount="1" stopTime="0.00" timeLoss="19.90" rerouteNo="0" devices="vehroute_flow_7_phase1_S_right.1 tripinfo_flow_7_phase1_S_right.1" vType="container" speedFactor="0.78" vaporized=""/>
    <tripinfo id="flow_13_phase1_W_straight.5" depart="67.00" departLane="W_in_1" departPos="177.50" departSpeed="7.73" departDelay="0.08" arrival="85.00" arrivalLane="E_out_1" arrivalPos="189.60" arrivalSpeed="15.84" duration="18.00" routeLength="222.50" waitingTime="0.00" waitingCount="0" stopTime="0.00" timeLoss="3.55" rerouteNo="0" devices="vehroute_flow_13_phase1_W_straight.5 tripinfo_flow_13_phase1_W_straight.5" vType="moto" speedFactor="1.14" vaporized=""/>
    <tripinfo id="flow_11_phase1_E_right.2" depart="65.00" departLane="W_in_1" departPos="108.70" departSpeed="9.42" departDelay="0.02" arrival="89.00" arrivalLane="E_out_1" arrivalPos="189.60" arrivalSpeed="15.19" duration="24.00" routeLength="291.30" waitingTime="0.00" waitingCount="0" stopTime="0.00" timeLoss="5.36" rerouteNo="0" devices="vehroute_flow_11_phase1_E_right.2 tripinfo_flow_11_phase1_E_right.2" vType="moto" speedFactor="1.14" vaporized=""/>
    <tripinfo id="flow_14_phase1_W_left.1" depart="35.00" departLane="S_in_0" departPos="134.76" departSpeed="11.76" departDelay="0.53" arrival="90.00" arrivalLane="S_out_0" arrivalPos="189.60" arrivalSpeed="12.17" duration="55.00" routeLength="249.11" waitingTime="17.00" waitingCount="2" stopTime="0.00" timeLoss="33.79" rerouteNo="0" devices="vehroute_flow_14_phase1_W_left.1 tripinfo_flow_14_phase1_W_left.1" vType="container" speedFactor="0.91" vaporized=""/>
    <tripinfo id="flow_16_phase1_W_uturn.1" depart="67.00" departLane="W_in_1" departPos="159.96" departSpeed="6.69" departDelay="0.80" arrival="90.00" arrivalLane="W_out_1" arrivalPos="189.60" arrivalSpeed="14.23" duration="23.00" routeLength="223.91" waitingTime="0.00" waitingCount="0" stopTime="0.00" timeLoss="6.06" rerouteNo="0" devices="vehroute_flow_16_phase1_W_uturn.1 tripinfo_flow_16_phase1_W_uturn.1" vType="moto" speedFactor="1.04" vaporized=""/>
    <tripinfo id="flow_9_phase1_E_straight.4" depart="52.00" departLane="E_in_0" departPos="167.23" departSpeed="1.87" departDelay="0.49" arrival="93.00" arrivalLane="W_out_0" arrivalPos="189.60" arrivalSpeed="13.03" duration="41.00" routeLength="232.77" waitingTime="10.00" waitingCount="1" stopTime="0.00" timeLoss="22.97" rerouteNo="0" devices="vehroute_flow_9_phase1_E_straight.4 tripinfo_flow_9_phase1_E_straight.4" vType="bus" speedFactor="0.95" vaporized=""/>
    <tripinfo id="flow_13_phase1_W_straight.4" depart="54.00" departLane="W_in_0" departPos="185.47" departSpeed="3.56" departDelay="0.46" arrival="94.00" arrivalLane="E_out_0" arrivalPos="189.60" arrivalSpeed="11.73" duration="40.00" routeLength="214.53" waitingTime="13.00" waitingCount="1" stopTime="0.00" timeLoss="22.11" rerouteNo="0" devices="vehroute_flow_13_phase1_W_straight.4 tripinfo_flow_13_phase1_W_straight.4" vType="bus" speedFactor="0.87" vaporized=""/>
    <tripinfo id="flow_5_phase1_S_straight.4" depart="53.00" departLane="E_in_0" departPos="8.08" departSpeed="6.48" departDelay="0.08" arrival="99.00" arrivalLane="W_out_0" arrivalPos="189.60" arrivalSpeed="13.17" duration="46.00" routeLength="391.92" waitingTime="0.00" waitingCount="0" stopTime="0.00" timeLoss="16.66" rerouteNo="0" devices="vehroute_flow_5_phase1_S_straight.4 tripinfo_flow_5_phase1_S_straight.4" vType="container" speedFactor="0.97" vaporized=""/>
    <tripinfo id="flow_2_phase1_N_left.2" depart="66.00" departLane="N_in_0" departPos="121.56" departSpeed="13.08" departDelay="0.64" arrival="99.00" arrivalLane="E_out_1" arrivalPos="189.60" arrivalSpeed="14.40" duration="33.00" routeLength="276.99" waitingTime="10.00" waitingCount="1" stopTime="0.00" timeLoss="14.03" rerouteNo="0" devices="vehroute_flow_2_phase1_N_left.2 tripinfo_flow_2_phase1_N_left.2" vType="emergency" speedFactor="1.10" vaporized=""/>
    <tripinfo id="flow_6_phase1_S_left.1" depart="34.00" departLane="S_in_1" departPos="79.10" departSpeed="8.50" departDelay="0.55" arrival="100.00" arrivalLane="W_out_1" arrivalPos="189.60" arrivalSpeed="13.99" duration="66.00" routeLength="319.45" waitingTime="24.00" waitingCount="3" stopTime="0.00" timeLoss="43.05" rerouteNo="0" devices="vehroute_flow_6_phase1_S_left.1 tripinfo_flow_6_phase1_S_left.1" vType="moto" speedFactor="1.05" vaporized=""/>
    <tripinfo id="flow_7_phase1_S_right.2" depart="65.00" departLane="S_in_0" departPos="81.69" departSpeed="9.48" departDelay="0.01" arrival="100.00" arrivalLane="E_out_0" arrivalPos="189.60" arrivalSpeed="13.55" duration="35.00" routeLength="306.54" waitingTime="7.00" waitingCount="1" stopTime="0.00" timeLoss="12.96" rerouteNo="0" devices="vehroute_flow_7_phase1_S_right.2 tripinfo_flow_7_phase1_S_right.2" vType="moto" speedFactor="1.03" vaporized=""/>
    <tripinfo id="flow_3_phase1_N_right.2" depart="69.00" departLane="N_in_1" departPos="137.11" departSpeed="4.96" departDelay="0.63" arrival="101.00" arrivalLane="W_out_0" arrivalPos="189.60" arrivalSpeed="15.01" duration="32.00" routeLength="251.12" waitingTime="5.00" waitingCount="1" stopTime="0.00" timeLoss="14.89" rerouteNo="0" devices="vehroute_flow_3_phase1_N_right.2 tripinfo_flow_3_phase1_N_right.2" vType="moto" speedFactor="1.10" vaporized=""/>
    <tripinfo id="flow_10_phase1_E_left.1" depart="34.00" departLane="E_in_0" departPos="4.52" departSpeed="10.41" departDelay="0.50" arrival="103.00" arrivalLane="S_out_0" arrivalPos="189.60" arrivalSpeed="9.89" duration="69.00" routeLength="394.03" waitingTime="15.00" waitingCount="3" stopTime="0.00" timeLoss="30.66" rerouteNo="0" devices="vehroute_flow_10_phase1_E_left.1 tripinfo_flow_10_phase1_E_left.1" vType="truck" speedFactor="0.77" vaporized=""/>
    <tripinfo id="flow_4_phase1_N_uturn.1" depart="67.00" departLane="N_in_0" departPos="64.25" departSpeed="6.13" departDelay="0.96" arrival="105.00" arrivalLane="N_out_1" arrivalPos="189.60" arrivalSpeed="11.99" duration="38.00" routeLength="319.62" waitingTime="3.00" waitingCount="1" stopTime="0.00" timeLoss="11.64" rerouteNo="0" devices="vehroute_flow_4_phase1_N_uturn.1 tripinfo_flow_4_phase1_N_uturn.1" vType="moto" speedFactor="0.94" vaporized=""/>
    <tripinfo id="flow_1_phase1_N_straight.5" depart="68.00" departLane="N_in_1" departPos="29.07" departSpeed="2.60" departDelay="0.42" arrival="106.00" arrivalLane="S_out_0" arrivalPos="189.60" arrivalSpeed="12.40" duration="38.00" routeLength="370.93" waitingTime="0.00" waitingCount="0" stopTime="0.00" timeLoss="7.70" rerouteNo="0" devices="vehroute_flow_1_phase1_N_straight.5 tripinfo_flow_1_phase1_N_straight.5" vType="moto" speedFactor="0.90" vaporized=""/>
    <tripinfo id="flow_5_phase1_S_straight.5" depart="67.00" departLane="E_in_1" departPos="174.17" departSpeed="2.99" departDelay="0.85" arrival="114.00" arrivalLane="W_out_0" arrivalPos="189.60" arrivalSpeed="13.11" duration="47.00" routeLength="225.83" waitingTime="11.00" waitingCount="2" stopTime="0.00" timeLoss="30.40" rerouteNo="0" devices="vehroute_flow_5_phase1_S_straight.5 tripinfo_flow_5_phase1_S_straight.5" vType="moto" speedFactor="1.03" vaporized=""/>
    <tripinfo id="flow_5_phase1_S_straight.3" depart="40.00" departLane="E_in_1" departPos="19.25" departSpeed="4.43" departDelay="0.31" arrival="115.00" arrivalLane="W_out_0" arrivalPos="189.60" arrivalSpeed="14.41" duration="75.00" routeLength="380.75" waitingTime="25.00" waitingCount="4" stopTime="0.00" timeLoss="49.08" rerouteNo="0" devices="vehroute_flow_5_phase1_S_straight.3 tripinfo_flow_5_phase1_S_straight.3" vType="moto" speedFactor="1.08" vaporized=""/>
    <tripinfo id="flow_15_phase1_W_right.2" depart="66.00" departLane="W_in_1" departPos="65.57" departSpeed="2.07" departDelay="0.32" arrival="115.00" arrivalLane="S_out_0" arrivalPos="189.60" arrivalSpeed="12.26" duration="49.00" routeLength="322.66" waitingTime="15.00" waitingCount="1" stopTime="0.00" timeLoss="22.22" rerouteNo="0" devices="vehroute_flow_15_phase1_W_right.2 tripinfo_flow_15_phase1_W_right.2" vType="moto" speedFactor="0.89" vaporized=""/>
    <tripinfo id="flow_6_phase1_S_left.2" depart="67.00" departLane="S_in_1" departPos="172.37" departSpeed="0.01" departDelay="0.10" arrival="115.00" arrivalLane="W_out_1" arrivalPos="189.60" arrivalSpeed="11.98" duration="48.00" routeLength="226.18" waitingTime="10.00" waitingCount="3" stopTime="0.00" timeLoss="28.76" rerouteNo="0" devices="vehroute_flow_6_phase1_S_left.2 tripinfo_flow_6_phase1_S_left.2" vType="truck" speedFactor="0.89" vaporized=""/>
    <tripinfo id="flow_13_phase1_W_straight.6" depart="81.00" departLane="W_in_1" departPos="37.04" departSpeed="3.09" departDelay="0.70" arrival="116.00" arrivalLane="E_out_1" arrivalPos="189.60" arrivalSpeed="12.68" duration="35.00" routeLength="362.96" waitingTime="0.00" waitingCount="0" stopTime="0.00" timeLoss="7.40" rerouteNo="0" devices="vehroute_flow_13_phase1_W_straight.6 tripinfo_flow_13_phase1_W_straight.6" vType="car" speedFactor="0.98" vaporized=""/>
    <tripinfo id="flow_9_phase1_E_straight.5" depart="65.00" departLane="E_in_0" departPos="71.94" departSpeed="3.84" departDelay="0.62" arrival="117.00" arrivalLane="W_out_0" arrivalPos="189.60" arrivalSpeed="13.72" duration="52.00" routeLength="328.06" waitingTime="10.00" waitingCount="2" stopTime="0.00" timeLoss="27.72" rerouteNo="0" devices="vehroute_flow_9_phase1_E_straight.5 tripinfo_flow_9_phase1_E_straight.5" vType="moto" speedFactor="1.00" vaporized=""/>
    <tripinfo id="flow_9_phase1_E_straight.6" depart="78.00" departLane="E_in_0" departPos="24.55" departSpeed="8.22" departDelay="0.74" arrival="118.00" arrivalLane="W_out_1" arrivalPos="189.60" arrivalSpeed="13.64" duration="40.00" routeLength="375.45" waitingTime="3.00" waitingCount="1" stopTime="0.00" timeLoss="12.84" rerouteNo="0" devices="vehroute_flow_9_phase1_E_straight.6 tripinfo_flow_9_phase1_E_straight.6" vType="moto" speedFactor="1.02" vaporized=""/>
    <tripinfo id="flow_5_phase1_S_straight.6" depart="80.00" departLane="E_in_0" departPos="18.52" departSpeed="1.75" departDelay="0.62" arrival="118.00" arrivalLane="W_out_0" arrivalPos="189.60" arrivalSpeed="14.52" duration="38.00" routeLength="381.48" waitingTime="2.00" waitingCount="1" stopTime="0.00" timeLoss="12.87" rerouteNo="0" devices="vehroute_flow_5_phase1_S_straight.6 tripinfo_flow_5_phase1_S_straight.6" vType="moto" speedFactor="1.10" vaporized=""/>
    <tripinfo id="flow_15_phase1_W_right.3" depart="99.00" departLane="W_in_1" departPos="140.12" departSpeed="12.69" departDelay="0.49" arrival="118.00" arrivalLane="S_out_0" arrivalPos="189.60" arrivalSpeed="14.72" duration="19.00" routeLength="248.11" waitingTime="0.00" waitingCount="0" stopTime="0.00" timeLoss="2.41" rerouteNo="0" devices="vehroute_flow_15_phase1_W_right.3 tripinfo_flow_15_phase1_W_right.3" vType="moto" speedFactor="1.17" vaporized=""/>
    <tripinfo id="flow_13_phase1_W_straight.7" depart="94.00" departLane="W_in_1" departPos="150.35" departSpeed="6.33" departDelay="0.31" arrival="120.00" arrivalLane="E_out_0" arrivalPos="189.60" arrivalSpeed="10.04" duration="26.00" routeLength="249.65" waitingTime="0.00" waitingCount="0" stopTime="0.00" timeLoss="3.47" rerouteNo="0" devices="vehroute_flow_13_phase1_W_straight.7 tripinfo_flow_13_phase1_W_straight.7" vType="moto" speedFactor="0.80" vaporized=""/>
    <tripinfo id="flow_9_phase1_E_straight.7" depart="91.00" departLane="E_in_0" departPos="36.12" departSpeed="6.53" departDelay="0.86" arrival="121.00" arrivalLane="W_out_0" arrivalPos="189.60" arrivalSpeed="13.38" duration="30.00" routeLength="363.88" waitingTime="0.00" waitingCount="0" stopTime="0.00" timeLoss="3.11" rerouteNo="0" devices="vehroute_flow_9_phase1_E_straight.7 tripinfo_flow_9_phase1_E_straight.7" vType="moto" speedFactor="1.01" vaporized=""/>
    <tripinfo id="flow_12_phase1_E_uturn.1" depart="66.00" departLane="E_in_0" departPos="91.52" departSpeed="11.74" departDelay="0.19" arrival="124.00" arrivalLane="E_out_1" arrivalPos="189.60" arrivalSpeed="12.91" duration="58.00" routeLength="292.35" waitingTime="18.00" waitingCount="3" stopTime="0.00" timeLoss="34.09" rerouteNo="0" devices="vehroute_flow_12_phase1_E_uturn.1 tripinfo_flow_12_phase1_E_uturn.1" vType="moto" speedFactor="0.95" vaporized=""/>
    <tripinfo id="flow_7_phase1_S_right.3" depart="98.00" departLane="S_in_0" departPos="140.51" departSpeed="11.13" departDelay="0.52" arrival="126.00" arrivalLane="E_out_0" arrivalPos="189.60" arrivalSpeed="14.08" duration="28.00" routeLength="247.72" waitingTime="3.00" waitingCount="1" stopTime="0.00" timeLoss="10.39" rerouteNo="0" devices="vehroute_flow_7_phase1_S_right.3 tripinfo_flow_7_phase1_S_right.3" vType="moto" speedFactor="1.07" vaporized=""/>
    <tripinfo id="flow_1_phase1_N_straight.7" depart="95.00" departLane="N_in_0" departPos="107.99" departSpeed="1.25" departDelay="0.39" arrival="127.00" arrivalLane="S_out_1" arrivalPos="189.60" arrivalSpeed="14.54" duration="32.00" routeLength="292.01" waitingTime="1.00" waitingCount="1" stopTime="0.00" timeLoss="11.86" rerouteNo="0" devices="vehroute_flow_1_phase1_N_straight.7 tripinfo_flow_1_phase1_N_straight.7" vType="moto" speedFactor="1.06" vaporized=""/>
    <tripinfo id="flow_1_phase1_N_straight.6" depart="82.00" departLane="N_in_1" departPos="47.50" departSpeed="4.37" departDelay="0.90" arrival="128.00" arrivalLane="S_out_0" arrivalPos="189.60" arrivalSpeed="12.50" duration="46.00" routeLength="352.50" waitingTime="12.00" waitingCount="1" stopTime="0.00" timeLoss="19.34" rerouteNo="0" devices="vehroute_flow_1_phase1_N_straight.6 tripinfo_flow_1_phase1_N_straight.6" vType="car" speedFactor="0.98" vaporized=""/>