<?xml version="1.0" encoding="UTF-8"?>

<!-- generated on 2025-12-08 21:29:13 by Eclipse SUMO sumo Version 1.18.0
<configuration xmlns:xsi="http://www.w3.org/2001/XMLSchema-instance" xsi:noNamespaceSchemaLocation="http://sumo.dlr.de/xsd/sumoConfiguration.xsd">

    <input>
        <net-file value="/workspace/nets/60p2k/net.net.xml"/>
        <route-files value="/workspace/nets/60p2k/route_temp_244_130720908769792_63793894.rou.xml"/>
    </input>

    <output>
        <summary-output value="results/summary_ep_19.xml"/>
        <tripinfo-output value="results/tripinfo_ep_19.xml"/>
        <vehroute-output value="results/vehroute_ep_19.xml"/>
    </output>

    <time>
        <begin value="0"/>
    </time>

    <report>
        <verbose value="true"/>
        <no-step-log value="true"/>
    </report>

    <traci_server>
        <remote-port value="56621"/>
    </traci_server>

    <gui_only>
        <gui-settings-file value="/workspace/nets/60p2k/gui-settings.xml"/>
        <quit-on-end value="true"/>
    </gui_only>

</configuration>
-->

<tripinfos xmlns:xsi="http://www.w3.org/2001/XMLSchema-instance" xsi:noNamespaceSchemaLocation="http://sumo.dlr.de/xsd/tripinfo_file.xsd">
    <tripinfo id="flow_5_phase1_S_straight.0" depart="0.00" departLane="S_in_1" departPos="107.37" departSpeed="7.21" departDelay="0.00" arrival="21.00" arrivalLane="N_out_1" arrivalPos="189.60" arrivalSpeed="14.65" duration="21.00" routeLength="292.63" waitingTime="0.00" waitingCount="0" stopTime="0.00" timeLoss="2.14" rerouteNo="0" devices="vehroute_flow_5_phase1_S_straight.0 tripinfo_flow_5_phase1_S_straight.0" vType="moto" speedFactor="1.15" vaporized=""/>
    <tripinfo id="flow_12_phase1_E_uturn.0" depart="0.00" departLane="S_in_0" departPos="129.89" departSpeed="13.76" departDelay="0.00" arrival="22.00" arrivalLane="E_out_0" arrivalPos="189.60" arrivalSpeed="13.11" duration="22.00" routeLength="258.34" waitingTime="0.00" waitingCount="0" stopTime="0.00" timeLoss="3.22" rerouteNo="0" devices="vehroute_flow_12_phase1_E_uturn.0 tripinfo_flow_12_phase1_E_uturn.0" vType="moto" speedFactor="1.03" vaporized=""/>
    <tripinfo id="flow_6_phase1_S_left.0" depart="0.00" departLane="S_in_1" departPos="166.01" departSpeed="0.74" departDelay="0.00" arrival="25.00" arrivalLane="W_out_1" arrivalPos="189.60" arrivalSpeed="11.97" duration="25.00" routeLength="232.54" waitingTime="0.00" waitingCount="0" stopTime="0.00" timeLoss="4.38" rerouteNo="0" devices="vehroute_flow_6_phase1_S_left.0 tripinfo_flow_6_phase1_S_left.0" vType="moto" speedFactor="0.88" vaporized=""/>
    <tripinfo id="flow_4_phase1_N_uturn.0" depart="0.00" departLane="N_in_1" departPos="127.60" departSpeed="0.08" departDelay="0.00" arrival="28.00" arrivalLane="N_out_1" arrivalPos="189.60" arrivalSpeed="12.74" duration="28.00" routeLength="256.27" waitingTime="0.00" waitingCount="0" stopTime="0.00" timeLoss="6.65" rerouteNo="0" devices="vehroute_flow_4_phase1_N_uturn.0 tripinfo_flow_4_phase1_N_uturn.0" vType="car" speedFactor="0.92" vaporized=""/>
    <tripinfo id="flow_10_phase1_E_left.0" depart="0.00" departLane="N_in_0" departPos="44.88" departSpeed="7.69" departDelay="0.00" arrival="28.00" arrivalLane="S_out_0" arrivalPos="189.60" arrivalSpeed="13.64" duration="28.00" routeLength="355.12" waitingTime="0.00" waitingCount="0" stopTime="0.00" timeLoss="1.95" rerouteNo="0" devices="vehroute_flow_10_phase1_E_left.0 tripinfo_flow_10_phase1_E_left.0" vType="truck" speedFactor="1.02" vaporized=""/>
    <tripinfo id="flow_3_phase1_N_right.0" depart="0.00" departLane="N_in_0" departPos="103.38" departSpeed="3.75" departDelay="0.00" arrival="30.00" arrivalLane="N_out_1" arrivalPos="189.60" arrivalSpeed="14.83" duration="30.00" routeLength="280.49" waitingTime="0.00" waitingCount="0" stopTime="0.00" timeLoss="10.26" rerouteNo="0" devices="vehroute_flow_3_phase1_N_right.0 tripinfo_flow_3_phase1_N_right.0" vType="car" speedFactor="1.09" vaporized=""/>
    <tripinfo id="flow_2_phase1_N_left.0" depart="0.00" departLane="S_in_1" departPos="8.27" departSpeed="8.33" departDelay="0.00" arrival="31.00" arrivalLane="E_out_0" arrivalPos="189.60" arrivalSpeed="12.82" duration="31.00" routeLength="379.96" waitingTime="0.00" waitingCount="0" stopTime="0.00" timeLoss="3.18" rerouteNo="0" devices="vehroute_flow_2_phase1_N_left.0 tripinfo_flow_2_phase1_N_left.0" vType="moto" speedFactor="1.02" vaporized=""/>
    <tripinfo id="flow_16_phase1_W_uturn.0" depart="0.00" departLane="W_in_0" departPos="135.67" departSpeed="9.64" departDelay="0.00" arrival="36.00" arrivalLane="N_out_1" arrivalPos="189.60" arrivalSpeed="14.21" duration="36.00" routeLength="262.88" waitingTime="11.00" waitingCount="1" stopTime="0.00" timeLoss="16.43" rerouteNo="0" devices="vehroute_flow_16_phase1_W_uturn.0 tripinfo_flow_16_phase1_W_uturn.0" vType="moto" speedFactor="1.04" vaporized=""/>
    <tripinfo id="flow_8_phase1_S_uturn.0" depart="0.00" departLane="W_in_0" departPos="120.11" departSpeed="4.48" departDelay="0.00" arrival="37.00" arrivalLane="E_out_0" arrivalPos="189.60" arrivalSpeed="14.21" duration="37.00" routeLength="279.89" waitingTime="8.00" waitingCount="1" stopTime="0.00" timeLoss="17.63" rerouteNo="0" devices="vehroute_flow_8_phase1_S_uturn.0 tripinfo_flow_8_phase1_S_uturn.0" vType="moto" speedFactor="1.05" vaporized=""/>
    <tripinfo id="flow_14_phase1_W_left.0" depart="0.00" departLane="W_in_1" departPos="42.31" departSpeed="3.71" departDelay="0.00" arrival="37.00" arrivalLane="N_out_1" arrivalPos="189.60" arrivalSpeed="13.24" duration="37.00" routeLength="356.24" waitingTime="2.00" waitingCount="1" stopTime="0.00" timeLoss="10.98" rerouteNo="0" devices="vehroute_flow_14_phase1_W_left.0 tripinfo_flow_14_phase1_W_left.0" vType="moto" speedFactor="1.01" vaporized=""/>
    <tripinfo id="flow_15_phase1_W_right.0" depart="0.00" departLane="W_in_1" departPos="153.90" departSpeed="6.73" departDelay="0.00" arrival="39.00" arrivalLane="S_out_0" arrivalPos="189.60" arrivalSpeed="11.36" duration="39.00" routeLength="234.33" waitingTime="12.00" waitingCount="1" stopTime="0.00" timeLoss="17.21" rerouteNo="0" devices="vehroute_flow_15_phase1_W_right.0 tripinfo_flow_15_phase1_W_right.0" vType="moto" speedFactor="0.85" vaporized=""/>
    <tripinfo id="flow_9_phase1_E_straight.0" depart="0.00" departLane="E_in_0" departPos="168.29" departSpeed="9.83" departDelay="0.00" arrival="40.00" arrivalLane="N_out_0" arrivalPos="189.60" arrivalSpeed="11.72" duration="40.00" routeLength="219.94" waitingTime="12.00" waitingCount="1" stopTime="0.00" timeLoss="20.87" rerouteNo="0" devices="vehroute_flow_9_phase1_E_straight.0 tripinfo_flow_9_phase1_E_straight.0" vType="truck" speedFactor="0.90" vaporized=""/>
    <tripinfo id="flow_9_phase1_E_straight.1" depart="13.00" departLane="E_in_1" departPos="177.29" departSpeed="8.41" departDelay="0.12" arrival="41.00" arrivalLane="N_out_0" arrivalPos="189.60" arrivalSpeed="13.43" duration="28.00" routeLength="210.94" waitingTime="5.00" waitingCount="1" stopTime="0.00" timeLoss="14.22" rerouteNo="0" devices="vehroute_flow_9_phase1_E_straight.1 tripinfo_flow_9_phase1_E_straight.1" vType="moto" speedFactor="1.16" vaporized=""/>
    <tripinfo id="flow_1_phase1_N_straight.0" depart="0.00" departLane="W_in_0" departPos="8.62" departSpeed="8.51" departDelay="0.00" arrival="45.00" arrivalLane="W_out_0" arrivalPos="189.60" arrivalSpeed="11.38" duration="45.00" routeLength="375.25" waitingTime="0.00" waitingCount="0" stopTime="0.00" timeLoss="12.68" rerouteNo="0" devices="vehroute_flow_1_phase1_N_straight.0 tripinfo_flow_1_phase1_N_straight.0" vType="bus" speedFactor="0.86" vaporized=""/>
    <tripinfo id="flow_11_phase1_E_right.0" depart="0.00" departLane="E_in_1" departPos="144.95" departSpeed="4.02" departDelay="0.00" arrival="45.00" arrivalLane="N_out_0" arrivalPos="189.60" arrivalSpeed="13.00" duration="45.00" routeLength="243.28" waitingTime="10.00" waitingCount="1" stopTime="0.00" timeLoss="26.05" rerouteNo="0" devices="vehroute_flow_11_phase1_E_right.0 tripinfo_flow_11_phase1_E_right.0" vType="bus" speedFactor="0.96" vaporized=""/>
    <tripinfo id="flow_5_phase1_S_straight.1" depart="14.00" departLane="S_in_1" departPos="181.05" departSpeed="2.69" departDelay="0.77" arrival="48.00" arrivalLane="N_out_1" arrivalPos="189.60" arrivalSpeed="14.88" duration="34.00" routeLength="218.95" waitingTime="12.00" waitingCount="1" stopTime="0.00" timeLoss="19.65" rerouteNo="0" devices="vehroute_flow_5_phase1_S_straight.1 tripinfo_flow_5_phase1_S_straight.1" vType="moto" speedFactor="1.19" vaporized=""/>
    <tripinfo id="flow_7_phase1_S_right.0" depart="0.00" departLane="S_in_0" departPos="8.76" departSpeed="8.07" departDelay="0.00" arrival="58.00" arrivalLane="E_out_0" arrivalPos="189.60" arrivalSpeed="11.66" duration="58.00" routeLength="379.47" waitingTime="11.00" waitingCount="1" stopTime="0.00" timeLoss="24.97" rerouteNo="0" devices="vehroute_flow_7_phase1_S_right.0 tripinfo_flow_7_phase1_S_right.0" vType="container" speedFactor="0.85" vaporized=""/>
    <tripinfo id="flow_15_phase1_W_right.1" depart="33.00" departLane="W_in_1" departPos="156.52" departSpeed="5.63" departDelay="0.16" arrival="60.00" arrivalLane="S_out_0" arrivalPos="189.60" arrivalSpeed="14.55" duration="27.00" routeLength="231.71" waitingTime="4.00" waitingCount="1" stopTime="0.00" timeLoss="10.98" rerouteNo="0" devices="vehroute_flow_15_phase1_W_right.1 tripinfo_flow_15_phase1_W_right.1" vType="moto" speedFactor="1.08" vaporized=""/>
    <tripinfo id="flow_9_phase1_E_straight.2" depart="26.00" departLane="E_in_1" departPos="103.67" departSpeed="3.85" departDelay="0.25" arrival="61.00" arrivalLane="N_out_0" arrivalPos="189.60" arrivalSpeed="12.52" duration="35.00" routeLength="284.56" waitingTime="8.00" waitingCount="1" stopTime="0.00" timeLoss="13.80" rerouteNo="0" devices="vehroute_flow_9_phase1_E_straight.2 tripinfo_flow_9_phase1_E_straight.2" vType="moto" speedFactor="0.99" vaporized=""/>
    <tripinfo id="flow_11_phase1_E_right.1" depart="33.00" departLane="E_in_0" departPos="80.24" departSpeed="9.78" departDelay="0.51" arrival="63.00" arrivalLane="N_out_0" arrivalPos="189.60" arrivalSpeed="14.11" duration="30.00" routeLength="307.99" waitingTime="1.00" waitingCount="1" stopTime="0.00" timeLoss="7.06" rerouteNo="0" devices="vehroute_flow_11_phase1_E_right.1 tripinfo_flow_11_phase1_E_right.1" vType="moto" speedFactor="1.04" vaporized=""/>
    <tripinfo id="flow_1_phase1_N_straight.3" depart="41.00" departLane="W_in_0" departPos="132.62" departSpeed="5.49" departDelay="0.45" arrival="68.00" arrivalLane="W_out_1" arrivalPos="189.60" arrivalSpeed="15.80" duration="27.00" routeLength="251.25" waitingTime="1.00" waitingCount="1" stopTime="0.00" timeLoss="10.34" rerouteNo="0" devices="vehroute_flow_1_phase1_N_straight.3 tripinfo_flow_1_phase1_N_straight.3" vType="moto" speedFactor="1.20" vaporized=""/>
    <tripinfo id="flow_13_phase1_W_straight.0" depart="0.00" departLane="W_in_0" departPos="77.99" departSpeed="1.48" departDelay="0.00" arrival="69.00" arrivalLane="W_out_0" arrivalPos="189.60" arrivalSpeed="10.87" duration="69.00" routeLength="305.88" waitingTime="12.00" waitingCount="1" stopTime="0.00" timeLoss="40.97" rerouteNo="0" devices="vehroute_flow_13_phase1_W_straight.0 tripinfo_flow_13_phase1_W_straight.0" vType="container" speedFactor="0.82" vaporized=""/>
    <tripinfo id="flow_9_phase1_E_straight.3" depart="39.00" departLane="E_in_1" departPos="165.68" departSpeed="5.39" departDelay="0.37" arrival="70.00" arrivalLane="N_out_0" arrivalPos="189.60" arrivalSpeed="11.79" duration="31.00" routeLength="222.55" waitingTime="0.00" waitingCount="0" stopTime="0.00" timeLoss="10.95" rerouteNo="0" devices="vehroute_flow_9_phase1_E_straight.3 tripinfo_flow_9_phase1_E_straight.3" vType="bus" speedFactor="0.85" vaporized=""/>
    <tripinfo id="flow_1_phase1_N_straight.1" depart="14.00" departLane="W_in_0" departPos="93.39" departSpeed="3.73" departDelay="0.48" arrival="73.00" arrivalLane="W_out_1" arrivalPos="189.60" arrivalSpeed="11.05" duration="59.00" routeLength="290.48" waitingTime="11.00" waitingCount="1" stopTime="0.00" timeLoss="33.55" rerouteNo="0" devices="vehroute_flow_1_phase1_N_straight.1 tripinfo_flow_1_phase1_N_straight.1" vType="moto" speedFactor="0.87" vaporized=""/>
    <tripinfo id="flow_5_phase1_S_straight.2" depart="27.00" departLane="S_in_0" departPos="33.93" departSpeed="0.90" departDelay="0.54" arrival="76.00" arrivalLane="N_out_0" arrivalPos="189.60" arrivalSpeed="12.45" duration="49.00" routeLength="366.07" waitingTime="12.00" waitingCount="1" stopTime="0.00" timeLoss="20.96" rerouteNo="0" devices="vehroute_flow_5_phase1_S_straight.2 tripinfo_flow_5_phase1_S_straight.2" vType="moto" speedFactor="0.96" vaporized=""/>
    <tripinfo id="flow_6_phase1_S_left.1" depart="34.00" departLane="S_in_0" departPos="69.24" departSpeed="6.06" departDelay="0.55" arrival="81.00" arrivalLane="W_out_1" arrivalPos="189.60" arrivalSpeed="13.96" duration="47.00" routeLength="329.31" waitingTime="14.00" waitingCount="2" stopTime="0.00" timeLoss="22.72" rerouteNo="0" devices="vehroute_flow_6_phase1_S_left.1 tripinfo_flow_6_phase1_S_left.1" vType="moto" speedFactor="1.05" vaporized=""/>
    <tripinfo id="flow_3_phase1_N_right.1" depart="35.00" departLane="N_in_1" departPos="118.54" departSpeed="10.72" departDelay="0.82" arrival="82.00" arrivalLane="N_out_1" arrivalPos="189.60" arrivalSpeed="11.98" duration="47.00" routeLength="265.33" waitingTime="17.00" waitingCount="2" stopTime="0.00" timeLoss="24.01" rerouteNo="0" devices="vehroute_flow_3_phase1_N_right.1 tripinfo_flow_3_phase1_N_right.1" vType="moto" speedFactor="0.88" vaporized=""/>
    <tripinfo id="flow_10_phase1_E_left.1" depart="34.00" departLane="N_in_1" departPos="57.40" departSpeed="0.25" departDelay="0.50" arrival="83.00" arrivalLane="S_out_0" arrivalPos="189.60" arrivalSpeed="10.63" duration="49.00" routeLength="342.60" waitingTime="1.00" waitingCount="1" stopTime="0.00" timeLoss="15.89" rerouteNo="0" devices="vehroute_flow_10_phase1_E_left.1 tripinfo_flow_10_phase1_E_left.1" vType="truck" speedFactor="0.77" vaporized=""/>
    <tripinfo id="flow_5_phase1_S_straight.3" depart="40.00" departLane="S_in_0" departPos="56.18" departSpeed="7.54" departDelay="0.31" arrival="83.00" arrivalLane="N_out_1" arrivalPos="189.60" arrivalSpeed="13.67" duration="43.00" routeLength="343.82" waitingTime="7.00" waitingCount="2" stopTime="0.00" timeLoss="19.84" rerouteNo="0" devices="vehroute_flow_5_phase1_S_straight.3 tripinfo_flow_5_phase1_S_straight.3" vType="moto" speedFactor="1.08" vaporized=""/>
    <tripinfo id="flow_7_phase1_S_right.1" depart="33.00" departLane="S_in_0" departPos="54.99" departSpeed="3.84" departDelay="0.51" arrival="85.00" arrivalLane="E_out_0" arrivalPos="189.60" arrivalSpeed="10.43" duration="52.00" routeLength="333.24" waitingTime="4.00" waitingCount="1" stopTime="0.00" timeLoss="20.30" rerouteNo="0" devices="vehroute_flow_7_phase1_S_right.1 tripinfo_flow_7_phase1_S_right.1" vType="container" speedFactor="0.78" vaporized=""/>
    <tripinfo id="flow_13_phase1_W_straight.1" depart="14.00" departLane="W_in_1" departPos="28.79" departSpeed="10.01" departDelay="0.62" arrival="86.00" arrivalLane="W_out_1" arrivalPos="189.60" arrivalSpeed="15.44" duration="72.00" routeLength="355.08" waitingTime="23.00" waitingCount="2" stopTime="0.00" timeLoss="48.54" rerouteNo="0" devices="vehroute_flow_13_phase1_W_straight.1 tripinfo_flow_13_phase1_W_straight.1" vType="car" speedFactor="1.12" vaporized=""/>
    <tripinfo id="flow_9_phase1_E_straight.4" depart="52.00" departLane="E_in_1" departPos="135.04" departSpeed="3.72" departDelay="0.49" arrival="93.00" arrivalLane="N_out_0" arrivalPos="189.60" arrivalSpeed="12.60" duration="41.00" routeLength="253.19" waitingTime="6.00" waitingCount="1" stopTime="0.00" timeLoss="20.84" rerouteNo="0" devices="vehroute_flow_9_phase1_E_straight.4 tripinfo_flow_9_phase1_E_straight.4" vType="bus" speedFactor="0.95" vaporized=""/>
    <tripinfo id="flow_9_phase1_E_straight.5" depart="65.00" departLane="E_in_0" departPos="125.76" departSpeed="4.77" departDelay="0.62" arrival="94.00" arrivalLane="N_out_1" arrivalPos="189.60" arrivalSpeed="13.21" duration="29.00" routeLength="262.47" waitingTime="0.00" waitingCount="0" stopTime="0.00" timeLoss="8.36" rerouteNo="0" devices="vehroute_flow_9_phase1_E_straight.5 tripinfo_flow_9_phase1_E_straight.5" vType="moto" speedFactor="1.00" vaporized=""/>
    <tripinfo id="flow_13_phase1_W_straight.2" depart="27.00" departLane="W_in_1" departPos="64.28" departSpeed="4.21" departDelay="0.23" arrival="95.00" arrivalLane="W_out_1" arrivalPos="189.60" arrivalSpeed="13.13" duration="68.00" routeLength="319.59" waitingTime="19.00" waitingCount="2" stopTime="0.00" timeLoss="42.82" rerouteNo="0" devices="vehroute_flow_13_phase1_W_straight.2 tripinfo_flow_13_phase1_W_straight.2" vType="bus" speedFactor="0.97" vaporized=""/>
    <tripinfo id="flow_11_phase1_E_right.2" depart="65.00" departLane="E_in_0" departPos="52.57" departSpeed="9.36" departDelay="0.02" arrival="95.00" arrivalLane="N_out_0" arrivalPos="189.60" arrivalSpeed="15.60" duration="30.00" routeLength="335.66" waitingTime="0.00" waitingCount="0" stopTime="0.00" timeLoss="7.60" rerouteNo="0" devices="vehroute_flow_11_phase1_E_right.2 tripinfo_flow_11_phase1_E_right.2" vType="moto" speedFactor="1.14" vaporized=""/>
    <tripinfo id="flow_2_phase1_N_left.1" depart="33.00" departLane="S_in_0" departPos="15.17" departSpeed="0.73" departDelay="0.32" arrival="99.00" arrivalLane="E_out_0" arrivalPos="189.60" arrivalSpeed="14.42" duration="66.00" routeLength="373.06" waitingTime="18.00" waitingCount="2" stopTime="0.00" timeLoss="41.23" rerouteNo="0" devices="vehroute_flow_2_phase1_N_left.1 tripinfo_flow_2_phase1_N_left.1" vType="moto" speedFactor="1.12" vaporized=""/>
    <tripinfo id="flow_2_phase1_N_left.2" depart="66.00" departLane="S_in_1" departPos="112.37" departSpeed="10.40" departDelay="0.64" arrival="101.00" arrivalLane="E_out_0" arrivalPos="189.60" arrivalSpeed="14.72" duration="35.00" routeLength="275.86" waitingTime="9.00" waitingCount="1" stopTime="0.00" timeLoss="15.32" rerouteNo="0" devices="vehroute_flow_2_phase1_N_left.2 tripinfo_flow_2_phase1_N_left.2" vType="emergency" speedFactor="1.10" vaporized=""/>
    <tripinfo id="flow_10_phase1_E_left.2" depart="67.00" departLane="N_in_1" departPos="74.60" departSpeed="12.15" departDelay="0.00" arrival="101.00" arrivalLane="S_out_0" arrivalPos="189.60" arrivalSpeed="14.76" duration="34.00" routeLength="325.40" waitingTime="5.00" waitingCount="1" stopTime="0.00" timeLoss="11.23" rerouteNo="0" devices="vehroute_flow_10_phase1_E_left.2 tripinfo_flow_10_phase1_E_left.2" vType="moto" speedFactor="1.07" vaporized=""/>
    <tripinfo id="flow_12_phase1_E_uturn.1" depart="66.00" departLane="S_in_1" departPos="91.52" departSpeed="11.38" departDelay="0.19" arrival="105.00" arrivalLane="E_out_0" arrivalPos="189.60" arrivalSpeed="12.12" duration="39.00" routeLength="296.71" waitingTime="7.00" waitingCount="1" stopTime="0.00" timeLoss="15.26" rerouteNo="0" devices="vehroute_flow_12_phase1_E_uturn.1 tripinfo_flow_12_phase1_E_uturn.1" vType="moto" speedFactor="0.95" vaporized=""/>
    <tripinfo id="flow_7_phase1_S_right.2" depart="65.00" departLane="S_in_1" departPos="29.12" departSpeed="12.08" departDelay="0.01" arrival="106.00" arrivalLane="E_out_0" arrivalPos="189.60" arrivalSpeed="13.52" duration="41.00" routeLength="359.11" waitingTime="7.00" waitingCount="1" stopTime="0.00" timeLoss="14.90" rerouteNo="0" devices="vehroute_flow_7_phase1_S_right.2 tripinfo_flow_7_phase1_S_right.2" vType="moto" speedFactor="1.03" vaporized=""/>
    <tripinfo id="flow_5_phase1_S_straight.4" depart="53.00" departLane="S_in_0" departPos="26.76" departSpeed="9.62" departDelay="0.08" arrival="109.00" arrivalLane="N_out_0" arrivalPos="189.60" arrivalSpeed="13.12" duration="56.00" routeLength="373.24" waitingTime="13.00" waitingCount="1" stopTime="0.00" timeLoss="27.78" rerouteNo="0" devices="vehroute_flow_5_phase1_S_straight.4 tripinfo_flow_5_phase1_S_straight.4" vType="container" speedFactor="0.97" vaporized=""/>
    <tripinfo id="flow_6_phase1_S_left.2" depart="67.00" departLane="S_in_0" departPos="21.68" departSpeed="11.28" departDelay="0.10" arrival="110.00" arrivalLane="W_out_1" arrivalPos="189.60" arrivalSpeed="11.79" duration="43.00" routeLength="376.87" waitingTime="1.00" waitingCount="1" stopTime="0.00" timeLoss="11.50" rerouteNo="0" devices="vehroute_flow_6_phase1_S_left.2 tripinfo_flow_6_phase1_S_left.2" vType="truck" speedFactor="0.89" vaporized=""/>
    <tripinfo id="flow_5_phase1_S_straight.5" depart="67.00" departLane="S_in_1" departPos="2.21" departSpeed="9.40" departDelay="0.85" arrival="111.00" arrivalLane="N_out_0" arrivalPos="189.60" arrivalSpeed="13.60" duration="44.00" routeLength="397.79" waitingTime="2.00" waitingCount="1" stopTime="0.00" timeLoss="15.75" rerouteNo="0" devices="vehroute_flow_5_phase1_S_straight.5 tripinfo_flow_5_phase1_S_straight.5" vType="moto" speedFactor="1.03" vaporized=""/>
    <tripinfo id="flow_4_phase1_N_uturn.1" depart="67.00" departLane="N_in_0" departPos="64.25" departSpeed="6.13" departDelay="0.96" arrival="112.00" arrivalLane="N_out_1" arrivalPos="189.60" arrivalSpeed="12.37" duration="45.00" routeLength="319.62" waitingTime="7.00" waitingCount="1" stopTime="0.00" timeLoss="18.56" rerouteNo="0" devices="vehroute_flow_4_phase1_N_uturn.1 tripinfo_flow_4_phase1_N_uturn.1" vType="moto" speedFactor="0.94" vaporized=""/>
    <tripinfo id="flow_9_phase1_E_straight.6" depart="78.00" departLane="E_in_0" departPos="18.52" departSpeed="1.63" departDelay="0.74" arrival="113.00" arrivalLane="N_out_0" arrivalPos="189.60" arrivalSpeed="13.90" duration="35.00" routeLength="369.71" waitingTime="0.00" waitingCount="0" stopTime="0.00" timeLoss="7.42" rerouteNo="0" devices="vehroute_flow_9_phase1_E_straight.6 tripinfo_flow_9_phase1_E_straight.6" vType="moto" speedFactor="1.02" vaporized=""/>
    <tripinfo id="flow_1_phase1_N_straight.2" depart="28.00" departLane="W_in_1" departPos="39.28" departSpeed="7.32" departDelay="0.97" arrival="114.00" arrivalLane="W_out_1" arrivalPos="189.60" arrivalSpeed="12.53" duration="86.00" routeLength="344.59" waitingTime="33.00" waitingCount="3" stopTime="0.00" timeLoss="58.59" rerouteNo="0" devices="vehroute_flow_1_phase1_N_straight.2 tripinfo_flow_1_phase1_N_straight.2" vType="moto" speedFactor="0.93" vaporized=""/>
    <tripinfo id="flow_15_phase1_W_right.2" depart="66.00" departLane="W_in_1" departPos="65.57" departSpeed="2.07" departDelay="0.32" arrival="115.00" arrivalLane="S_out_0" arrivalPos="189.60" arrivalSpeed="11.84" duration="49.00" routeLength="322.66" waitingTime="11.00" waitingCount="1" stopTime="0.00" timeLoss="22.10" rerouteNo="0" devices="vehroute_flow_15_phase1_W_right.2 tripinfo_flow_15_phase1_W_right.2" vType="moto" speedFactor="0.89" vaporized=""/>
    <tripinfo id="flow_9_phase1_E_straight.7" depart="91.00" departLane="E_in_1" departPos="41.83" departSpeed="13.19" departDelay="0.86" arrival="119.00" arrivalLane="N_out_0" arrivalPos="189.60" arrivalSpeed="12.75" duration="28.00" routeLength="346.40" waitingTime="0.00" waitingCount="0" stopTime="0.00" timeLoss="2.75" rerouteNo="0" devices="vehroute_flow_9_phase1_E_straight.7 tripinfo_flow_9_phase1_E_straight.7" vType="moto" speedFactor="1.01" vaporized=""/>
    <tripinfo id="flow_8_phase1_S_uturn.1" depart="66.00" departLane="W_in_1" departPos="104.14" departSpeed="1.34" departDelay="0.07" arrival="120.00" arrivalLane="E_out_0" arrivalPos="189.60" arrivalSpeed="12.34" duration="54.00" routeLength="295.86" waitingTime="10.00" waitingCount="2" stopTime="0.00" timeLoss="30.64" rerouteNo="0" devices="vehroute_flow_8_phase1_S_uturn.1 tripinfo_flow_8_phase1_S_uturn.1" vType="truck" speedFactor="0.94" vaporized=""/>
    <tripinfo id="flow_14_phase1_W_left.1" depart="35.00" departLane="W_in_1" departPos="80.60" departSpeed="6.26" departDelay="0.53" arrival="124.00" arrivalLane="N_out_1" arrivalPos="189.60" arrivalSpeed="12.67" duration="89.00" routeLength="317.95" waitingTime="29.00" waitingCount="3" stopTime="0.00" timeLoss="63.19" rerouteNo="0" devices="vehroute_flow_14_phase1_W_left.1 tripinfo_flow_14_phase1_W_left.1" vType="container" speedFactor="0.91" vaporized=""/>
    <tripinfo id="flow_5_phase1_S_straight.6" depart="80.00" departLane="S_in_1" departPos="37.04" departSpeed="3.48" departDelay="0.62" arrival="126.00" arrivalLane="N_out_0" arrivalPos="189.60" arrivalSpeed="14.44" duration="46.00" routeLength="362.96" waitingTime="13.00" waitingCount="1" stopTime="0.00" timeLoss="22.19" rerouteNo="0" devices="vehroute_flow_5_phase1_S_straight.6 tripinfo_flow_5_phase1_S_straight.6" vType="moto" speedFactor="1.10" vaporized=""/>
    <tripinfo id="flow_5_phase1_S_straight.8" depart="106.00" departLane="S_in_0" departPos="157.03" departSpeed="6.02" departDelay="0.16" arrival="127.00" arrivalLane="N_out_1" arrivalPos="189.60" arrivalSpeed="15.59" duration="21.00" routeLength="242.97" waitingTime="0.00" waitingCount="0" stopTime="0.00" timeLoss="4.80" rerouteNo="0" devices="vehroute_flow_5_phase1_S_straight.8 tripinfo_flow_5_phase1_S_straight.8" vType="emergency" speedFactor="1.14" vaporized=""/>
    <tripinfo id="flow_3_phase1_N_right.2" depart="69.00" departLane="N_in_0" departPos="69.49" departSpeed="6.82" departDelay="0.63" arrival="131.00" arrivalLane="N_out_1" arrivalPos="189.60" arrivalSpeed="15.32" duration="62.00" routeLength="314.38" waitingTime="25.00" waitingCount="3" stopTime="0.00" timeLoss="40.23" rerouteNo="0" devices="vehroute_flow_3_phase1_N_right.2 tripinfo_flow_3_phase1_N_right.2" vType="moto" speedFactor="1.10" vaporized=""/>
    <tripinfo id="flow_10_phase1_E_left.3" depart="101.00" departLane="N_in_1" departPos="103.46" departSpeed="3.41" departDelay="0.50" arrival="132.00" arrivalLane="S_out_0" arrivalPos="189.60" arrivalSpeed="14.79" duration="31.00" routeLength="296.54" waitingTime="0.00" waitingCount="0" stopTime="0.00" timeLoss="10.14" rerouteNo="0" devices="vehroute_flow_10_phase1_E_left.3 tripinfo_flow_10_phase1_E_left.3" vType="truck" speedFactor="1.07" vaporized=""/>
    <tripinfo id="flow_5_phase1_S_straight.7" depart="93.00" departLane="S_in_1" departPos="150.35" departSpeed="7.14" departDelay="0.39" arrival="133.00" arrivalLane="N_out_0" arrivalPos="189.60" arrivalSpeed="11.89" duration="40.00" routeLength="249.65" waitingTime="7.00" waitingCount="1" stopTime="0.00" timeLoss="19.88" rerouteNo="0" devices="vehroute_flow_5_phase1_S_straight.7 tripinfo_flow_5_phase1_S_straight.7" vType="bus" speedFactor="0.90" vaporized=""/>
    <tripinfo id="flow_2_phase1_N_left.3" depart="99.00" departLane="S_in_1" departPos="140.12" departSpeed="9.78" departDelay="0.96" arrival="134.00" arrivalLane="E_out_0" arrivalPos="189.60" arrivalSpeed="11.07" duration="35.00" routeLength="248.11" waitingTime="5.00" waitingCount="1" stopTime="0.00" timeLoss="13.76" rerouteNo="0" devices="vehroute_flow_2_phase1_N_left.3 tripinfo_flow_2_phase1_N_left.3" vType="moto" speedFactor="0.89" vaporized=""/>
    <tripinfo id="flow_6_phase1_S_left.3" depart="101.00" departLane="S_in_1" departPos="2.21" departSpeed="8.06" departDelay="0.64" arrival="134.00" arrivalLane="W_out_1" arrivalPos="189.60" arrivalSpeed="14.05" duration="33.00" routeLength="396.34" waitingTime="0.00" waitingCount="0" stopTime="0.00" timeLoss="6.10" rerouteNo="0" devices="vehroute_flow_6_phase1_S_left.3 tripinfo_flow_6_phase1_S_left.3" vType="car" speedFactor="1.10" vaporized=""/>
    <tripinfo id="flow_7_phase1_S_right.3" depart="98.00" departLane="S_in_1" departPos="86.40" departSpeed="1.77" departDelay="0.52" arrival="135.00" arrivalLane="E_out_0" arrivalPos="189.60" arrivalSpeed="14.37" duration="37.00" routeLength="301.83" waitingTime="0.00" waitingCount="0" stopTime="0.00" timeLoss="16.10" rerouteNo="0" devices="vehroute_flow_7_phase1_S_right.3 tripinfo_flow_7_phase1_S_right.3" vType="moto" speedFactor="1.07" vaporized=""/>
    <tripinfo id="flow_3_phase1_N_right.3" depart="103.00" departLane="N_in_1" departPos="42.08" departSpeed="12.10" departDelay="0.45" arrival="135.00" arrivalLane="N_out_1" arrivalPos="189.60" arrivalSpeed="13.06" duration="32.00" routeLength="341.79" waitingTime="0.00" waitingCount="0" stopTime="0.00" timeLoss="5.19" rerouteNo="0" devices="vehroute_flow_3_phase1_N_right.3 tripinfo_flow_3_phase1_N_right.3" vType="moto" speedFactor="0.96" vaporized=""/>
    <tripinfo id="flow_15_phase1_W_right.3" depart="99.00" departLane="W_in_1" departPos="74.79" departSpeed="3.05" departDelay="0.49" arrival="138.00" arrivalLane="S_out_0" arrivalPos="189.60" arrivalSpeed="15.51" duration="39.00" routeLength="313.44" waitingTime="10.00" waitingCount="1" stopTime="0.00" timeLoss="18.34" rerouteNo="0" devices="vehroute_flow_15_phase1_W_right.3 tripinfo_flow_15_phase1_W_right.3" vType="moto" speedFactor="1.17" vaporized=""/>
    <tripinfo id="flow_1_phase1_N_straight.7" depart="95.00" departLane="W_in_0" departPos="140.51" departSpeed="11.07" departDelay="0.39" arrival="140.00" arrivalLane="W_out_1" arrivalPos="189.60" arrivalSpeed="13.69" duration="45.00" routeLength="243.36" waitingTime="17.00" waitingCount="2" stopTime="0.00" timeLoss="27.01" rerouteNo="0" devices="vehroute_flow_1_phase1_N_straight.7 tripinfo_flow_1_phase1_N_straight.7" vType="moto" speedFactor="1.06" vaporized=""/>
    <tripinfo id="flow_11_phase1_E_right.3" depart="98.00" departLane="E_in_1" departPos="16.13" departSpeed="6.81" departDelay="0.53" arrival="143.00" arrivalLane="N_out_0" arrivalPos="189.60" arrivalSpeed="10.79" duration="45.00" routeLength="372.10" waitingTime="5.00" waitingCount="1" stopTime="0.00" timeLoss="11.49" rerouteNo="0" devices="vehroute_flow_11_phase1_E_right.3 tripinfo_flow_11_phase1_E_right.3" vType="moto" speedFactor="0.83" vaporized=""/>