<?xml version="1.0" encoding="UTF-8"?>

<!-- generated on 2025-12-08 21:21:31 by Eclipse SUMO sumo Version 1.18.0
<configuration xmlns:xsi="http://www.w3.org/2001/XMLSchema-instance" xsi:noNamespaceSchemaLocation="http://sumo.dlr.de/xsd/sumoConfiguration.xsd">

    <input>
        <net-file value="/workspace/nets/60p2k/net.net.xml"/>
        <route-files value="/workspace/nets/60p2k/route_temp_244_130720908769792_63793894.rou.xml"/>
    </input>

    <output>
        <summary-output value="results/summary_ep_2.xml"/>
        <tripinfo-output value="results/tripinfo_ep_2.xml"/>
        <vehroute-output value="results/vehroute_ep_2.xml"/>
    </output>

    <time>
        <begin value="0"/>
    </time>

    <report>
        <verbose value="true"/>
        <no-step-log value="true"/>
    </report>

    <traci_server>
        <remote-port value="42417"/>
    </traci_server>

    <gui_only>
        <gui-settings-file value="/workspace/nets/60p2k/gui-settings.xml"/>
        <quit-on-end value="true"/>
    </gui_only>

</configuration>
-->

<routes xmlns:xsi="http://www.w3.org/2001/XMLSchema-instance" xsi:noNamespaceSchemaLocation="http://sumo.dlr.de/xsd/routes_file.xsd">
    <vehicle id="flow_8_phase1_S_uturn.0" type="moto" depart="0.00" departLane="0" departPos="156.2887" departSpeed="13.7118" speedFactor="1.0505" arrival="21.00">
        <route edges="S_in S_out"/>
    </vehicle>

    <vehicle id="flow_5_phase1_S_straight.0" type="moto" depart="0.00" departLane="1" departPos="107.3659" departSpeed="7.2113" speedFactor="1.1475" arrival="22.00">
        <route edges="S_in N_out"/>
    </vehicle>

    <vehicle id="flow_3_phase1_N_right.0" type="car" depart="0.00" departLane="0" departPos="103.3842" departSpeed="3.7523" speedFactor="1.0907" arrival="24.00">
        <route edges="N_in W_out"/>
    </vehicle>

    <vehicle id="flow_6_phase1_S_left.0" type="moto" depart="0.00" departLane="1" departPos="166.0107" departSpeed="0.7376" speedFactor="0.8806" arrival="26.00">
        <route edges="S_in W_out"/>
    </vehicle>

    <vehicle id="flow_4_phase1_N_uturn.0" type="car" depart="0.00" departLane="1" departPos="127.6015" departSpeed="0.0774" speedFactor="0.9228" arrival="29.00">
        <route edges="N_in N_out"/>
    </vehicle>

    <vehicle id="flow_2_phase1_N_left.0" type="moto" depart="0.00" departLane="1" departPos="8.2688" departSpeed="8.3291" speedFactor="1.0157" arrival="31.00">
        <route edges="N_in E_out"/>
    </vehicle>

    <vehicle id="flow_7_phase1_S_right.0" type="container" depart="0.00" departLane="0" departPos="58.2193" departSpeed="8.0654" speedFactor="0.8488" arrival="31.00">
        <route edges="N_in S_out"/>
    </vehicle>

    <vehicle id="flow_9_phase1_E_straight.0" type="truck" depart="0.00" departLane="1" departPos="103.2018" departSpeed="4.9557" speedFactor="0.8990" arrival="41.00">
        <route edges="E_in W_out"/>
    </vehicle>

    <vehicle id="flow_11_phase1_E_right.0" type="bus" depart="0.00" departLane="0" departPos="181.3695" departSpeed="2.1189" speedFactor="0.9581" arrival="42.00">
        <route edges="W_in E_out"/>
    </vehicle>

    <vehicle id="flow_9_phase1_E_straight.1" type="moto" depart="13.00" departLane="1" departPos="58.3562" departSpeed="11.0657" speedFactor="1.1582" arrival="43.00">
        <route edges="E_in W_out"/>
    </vehicle>

    <vehicle id="flow_12_phase1_E_uturn.0" type="moto" depart="0.00" departLane="1" departPos="62.8159" departSpeed="9.8539" speedFactor="1.0348" arrival="44.00">
        <route edges="E_in E_out"/>
    </vehicle>

    <vehicle id="flow_15_phase1_W_right.0" type="moto" depart="0.00" departLane="1" departPos="153.8984" departSpeed="6.7313" speedFactor="0.8472" arrival="44.00">
        <route edges="W_in S_out"/>
    </vehicle>

    <vehicle id="flow_16_phase1_W_uturn.0" type="moto" depart="0.00" departLane="0" departPos="135.6701" departSpeed="9.6426" speedFactor="1.0383" arrival="45.00">
        <route edges="W_in S_out"/>
    </vehicle>

    <vehicle id="flow_14_phase1_W_left.0" type="moto" depart="0.00" departLane="1" departPos="42.3057" departSpeed="3.7077" speedFactor="1.0101" arrival="46.00">
        <route edges="W_in N_out"/>
    </vehicle>

    <vehicle id="flow_5_phase1_S_straight.1" type="moto" depart="14.00" departLane="1" departPos="121.6549" departSpeed="2.9337" speedFactor="1.1853" arrival="47.00">
        <route edges="S_in N_out"/>
    </vehicle>

    <vehicle id="flow_1_phase1_N_straight.1" type="moto" depart="14.00" departLane="1" departPos="31.9285" departSpeed="7.0365" speedFactor="0.8727" arrival="51.00">
        <route edges="N_in S_out"/>
    </vehicle>

    <vehicle id="flow_1_phase1_N_straight.0" type="bus" depart="0.00" departLane="0" departPos="8.6229" departSpeed="8.5053" speedFactor="0.8588" arrival="55.00">
        <route edges="N_in S_out"/>
    </vehicle>

    <vehicle id="flow_6_phase1_S_left.1" type="moto" depart="34.00" departLane="1" departPos="185.2056" departSpeed="4.3934" speedFactor="1.0453" arrival="56.00">
        <route edges="S_in W_out"/>
    </vehicle>

    <vehicle id="flow_3_phase1_N_right.1" type="moto" depart="35.00" departLane="1" departPos="175.3621" departSpeed="7.653" speedFactor="0.8806" arrival="56.00">
        <route edges="N_in W_out"/>
    </vehicle>

    <vehicle id="flow_5_phase1_S_straight.2" type="moto" depart="27.00" departLane="1" departPos="59.5081" departSpeed="13.2726" speedFactor="0.9623" arrival="58.00">
        <route edges="S_in N_out"/>
    </vehicle>

    <vehicle id="flow_13_phase1_W_straight.1" type="car" depart="14.00" departLane="1" departPos="52.8684" departSpeed="0.4341" speedFactor="1.1218" arrival="61.00">
        <route edges="W_in E_out"/>
    </vehicle>

    <vehicle id="flow_15_phase1_W_right.1" type="moto" depart="33.00" departLane="1" departPos="110.9191" departSpeed="7.7034" speedFactor="1.0788" arrival="63.00">
        <route edges="W_in S_out"/>
    </vehicle>

    <vehicle id="flow_11_phase1_E_right.1" type="moto" depart="33.00" departLane="0" departPos="73.8966" departSpeed="8.8622" speedFactor="1.0365" arrival="65.00">
        <route edges="W_in E_out"/>
    </vehicle>

    <vehicle id="flow_9_phase1_E_straight.3" type="bus" depart="39.00" departLane="0" departPos="184.1938" departSpeed="4.2026" speedFactor="0.8515" arrival="68.00">
        <route edges="E_in W_out"/>
    </vehicle>

    <vehicle id="flow_9_phase1_E_straight.2" type="moto" depart="26.00" departLane="1" departPos="12.6982" departSpeed="12.8207" speedFactor="0.9938" arrival="70.00">
        <route edges="E_in W_out"/>
    </vehicle>

    <vehicle id="flow_13_phase1_W_straight.0" type="container" depart="0.00" departLane="0" departPos="77.991" departSpeed="1.4338" speedFactor="0.8227" arrival="71.00">
        <route edges="W_in E_out"/>
    </vehicle>

    <vehicle id="flow_13_phase1_W_straight.2" type="bus" depart="27.00" departLane="1" departPos="107.5311" departSpeed="1.1546" speedFactor="0.9657" arrival="73.00">
        <route edges="W_in E_out"/>
    </vehicle>

    <vehicle id="flow_1_phase1_N_straight.2" type="moto" depart="28.00" departLane="0" departPos="8.8817" departSpeed="2.3302" speedFactor="0.9279" arrival="76.00">
        <route edges="N_in S_out"/>
    </vehicle>

    <vehicle id="flow_14_phase1_W_left.1" type="container" depart="35.00" departLane="0" departPos="86.4153" departSpeed="5.4043" speedFactor="0.9146" arrival="77.00">
        <route edges="W_in N_out"/>
    </vehicle>

    <vehicle id="flow_5_phase1_S_straight.3" type="moto" depart="40.00" departLane="0" departPos="65.0085" departSpeed="6.1506" speedFactor="1.0764" arrival="78.00">
        <route edges="S_in N_out"/>
    </vehicle>

    <vehicle id="flow_1_phase1_N_straight.3" type="moto" depart="41.00" departLane="1" departPos="88.4153" departSpeed="1.6244" speedFactor="1.2027" arrival="78.00">
        <route edges="N_in S_out"/>
    </vehicle>

    <vehicle id="flow_10_phase1_E_left.0" type="truck" depart="0.00" departLane="1" departPos="57.2141" departSpeed="0.4579" speedFactor="1.0161" arrival="79.00">
        <route edges="E_in S_out"/>
    </vehicle>

    <vehicle id="flow_5_phase1_S_straight.4" type="container" depart="53.00" departLane="0" departPos="70.4575" departSpeed="11.8993" speedFactor="0.9706" arrival="80.00">
        <route edges="S_in N_out"/>
    </vehicle>

    <vehicle id="flow_2_phase1_N_left.1" type="moto" depart="33.00" departLane="1" departPos="66.71" departSpeed="11.2663" speedFactor="1.1228" arrival="83.00">
        <route edges="N_in E_out"/>
    </vehicle>

    <vehicle id="flow_7_phase1_S_right.1" type="container" depart="33.00" departLane="1" departPos="128.6773" departSpeed="2.3158" speedFactor="0.7845" arrival="89.00">
        <route edges="N_in S_out"/>
    </vehicle>

    <vehicle id="flow_13_phase1_W_straight.3" type="car" depart="41.00" departLane="1" departPos="53.3168" departSpeed="11.3759" speedFactor="1.0479" arrival="89.00">
        <route edges="W_in E_out"/>
    </vehicle>

    <vehicle id="flow_11_phase1_E_right.2" type="moto" depart="65.00" departLane="1" departPos="129.0888" departSpeed="6.0297" speedFactor="1.1432" arrival="90.00">
        <route edges="W_in E_out"/>
    </vehicle>

    <vehicle id="flow_16_phase1_W_uturn.1" type="moto" depart="67.00" departLane="1" departPos="177.4982" departSpeed="7.0397" speedFactor="1.0390" arrival="91.00">
        <route edges="W_in S_out"/>
    </vehicle>

    <vehicle id="flow_13_phase1_W_straight.5" type="moto" depart="67.00" departLane="1" departPos="74.602" departSpeed="13.505" speedFactor="1.1413" arrival="92.00">
        <route edges="W_in E_out"/>
    </vehicle>

    <vehicle id="flow_9_phase1_E_straight.4" type="bus" depart="52.00" departLane="0" departPos="135.2371" departSpeed="1.6457" speedFactor="0.9525" arrival="93.00">
        <route edges="E_in W_out"/>
    </vehicle>

    <vehicle id="flow_9_phase1_E_straight.5" type="moto" depart="65.00" departLane="1" departPos="111.6918" departSpeed="5.9674" speedFactor="0.9964" arrival="96.00">
        <route edges="E_in W_out"/>
    </vehicle>

    <vehicle id="flow_13_phase1_W_straight.4" type="bus" depart="54.00" departLane="1" departPos="74.0695" departSpeed="0.5146" speedFactor="0.8691" arrival="98.00">
        <route edges="W_in E_out"/>
    </vehicle>

    <vehicle id="flow_14_phase1_W_left.2" type="car" depart="69.00" departLane="1" departPos="84.296" departSpeed="4.0348" speedFactor="0.8975" arrival="99.00">
        <route edges="W_in N_out"/>
    </vehicle>

    <vehicle id="flow_5_phase1_S_straight.5" type="moto" depart="67.00" departLane="0" departPos="64.2471" departSpeed="6.7102" speedFactor="1.0265" arrival="103.00">
        <route edges="S_in N_out"/>
    </vehicle>

    <vehicle id="flow_1_phase1_N_straight.5" type="moto" depart="68.00" departLane="1" departPos="159.9604" departSpeed="5.8036" speedFactor="0.9020" arrival="103.00">
        <route edges="N_in S_out"/>
    </vehicle>

    <vehicle id="flow_3_phase1_N_right.2" type="moto" depart="69.00" departLane="1" departPos="29.0743" departSpeed="3.1852" speedFactor="1.1043" arrival="103.00">
        <route edges="N_in W_out"/>
    </vehicle>

    <vehicle id="flow_5_phase1_S_straight.6" type="moto" depart="80.00" departLane="0" departPos="149.6933" departSpeed="1.9769" speedFactor="1.0983" arrival="104.00">
        <route edges="S_in N_out"/>
    </vehicle>

    <vehicle id="flow_7_phase1_S_right.2" type="moto" depart="65.00" departLane="1" departPos="65.3279" departSpeed="12.9273" speedFactor="1.0283" arrival="105.00">
        <route edges="N_in S_out"/>
    </vehicle>

    <vehicle id="flow_10_phase1_E_left.1" type="truck" depart="34.00" departLane="0" departPos="19.8546" departSpeed="3.2255" speedFactor="0.7665" arrival="106.00">
        <route edges="E_in S_out"/>
    </vehicle>

    <vehicle id="flow_2_phase1_N_left.2" type="emergency" depart="66.00" departLane="1" departPos="19.5053" departSpeed="8.7576" speedFactor="1.0989" arrival="107.00">
        <route edges="N_in E_out"/>
    </vehicle>

    <vehicle id="flow_1_phase1_N_straight.4" type="truck" depart="55.00" departLane="1" departPos="160.3044" departSpeed="5.6963" speedFactor="0.9194" arrival="108.00">
        <route edges="N_in S_out"/>
    </vehicle>

    <vehicle id="flow_4_phase1_N_uturn.1" type="moto" depart="67.00" departLane="1" departPos="65.5698" departSpeed="2.1826" speedFactor="0.9374" arrival="108.00">
        <route edges="N_in N_out"/>
    </vehicle>

    <vehicle id="flow_13_phase1_W_straight.6" type="car" depart="81.00" departLane="0" departPos="42.8454" departSpeed="1.3253" speedFactor="0.9759" arrival="113.00">
        <route edges="W_in E_out"/>
    </vehicle>

    <vehicle id="flow_8_phase1_S_uturn.1" type="truck" depart="66.00" departLane="0" departPos="155.6805" departSpeed="8.3733" speedFactor="0.9396" arrival="114.00">
        <route edges="S_in S_out"/>
    </vehicle>

    <vehicle id="flow_9_phase1_E_straight.6" type="moto" depart="78.00" departLane="1" departPos="29.8839" departSpeed="11.3705" speedFactor="1.0203" arrival="114.00">
        <route edges="E_in W_out"/>
    </vehicle>

    <vehicle id="flow_15_phase1_W_right.2" type="moto" depart="66.00" departLane="0" departPos="91.5182" departSpeed="10.9535" speedFactor="0.8882" arrival="115.00">
        <route edges="W_in S_out"/>
    </vehicle>

    <vehicle id="flow_10_phase1_E_left.2" type="moto" depart="67.00" departLane="0" departPos="78.0885" departSpeed="13.4813" speedFactor="1.0668" arrival="116.00">
        <route edges="E_in S_out"/>
    </vehicle>

    <vehicle id="flow_12_phase1_E_uturn.1" type="moto" depart="66.00" departLane="1" departPos="2.773" departSpeed="7.2657" speedFactor="0.9517" arrival="118.00">
        <route edges="E_in E_out"/>
    </vehicle>

    <vehicle id="flow_9_phase1_E_straight.7" type="moto" depart="91.00" departLane="1" departPos="88.3207" departSpeed="11.9262" speedFactor="1.0085" arrival="118.00">
        <route edges="E_in W_out"/>
    </vehicle>

    <vehicle id="flow_15_phase1_W_right.3" type="moto" depart="99.00" departLane="0" departPos="150.3232" departSpeed="6.8844" speedFactor="1.1705" arrival="119.00">
        <route edges="W_in S_out"/>
    </vehicle>

    <vehicle id="flow_13_phase1_W_straight.7" type="moto" depart="94.00" departLane="1" departPos="107.805" departSpeed="10.2122" speedFactor="0.8003" arrival="122.00">
        <route edges="W_in E_out"/>
    </vehicle>

    <vehicle id="flow_9_phase1_E_straight.8" type="moto" depart="104.00" departLane="0" departPos="178.6166" departSpeed="7.1187" speedFactor="0.9385" arrival="122.00">
        <route edges="E_in W_out"/>
    </vehicle>

    <vehicle id="flow_7_phase1_S_right.3" type="moto" depart="98.00" departLane="1" departPos="142.1182" departSpeed="0.5142" speedFactor="1.0682" arrival="127.00">
        <route edges="N_in S_out"/>
    </vehicle>

    <vehicle id="flow_1_phase1_N_straight.6" type="car" depart="82.00" departLane="1" departPos="60.8307" departSpeed="2.6601" speedFactor="0.9797" arrival="128.00">
        <route edges="N_in S_out"/>
    </vehicle>

    <vehicle id="flow_1_phase1_N_straight.7" type="moto" depart="95.00" departLane="0" departPos="16.037" departSpeed="5.9571" speedFactor="1.0626" arrival="129.00">
        <route edges="N_in S_out"/>
    </vehicle>

    <vehicle id="flow_3_phase1_N_right.3" type="moto" depart="103.00" departLane="1" departPos="109.812" departSpeed="0.1558" speedFactor="0.9618" arrival="132.00">
        <route edges="N_in W_out"/>
    </vehicle>

    <vehicle id="flow_5_phase1_S_straight.8" type="emergency" depart="106.00" departLane="0" departPos="65.7387" departSpeed="2.9737" speedFactor="1.1380" arrival="132.00">
        <route edges="S_in N_out"/>
    </vehicle>

    <vehicle id="flow_5_phase1_S_straight.7" type="bus" depart="93.00" departLane="0" departPos="178.3578" departSpeed="2.9959" speedFactor="0.9040" arrival="133.00">
        <route edges="S_in N_out"/>
    </vehicle>

    <vehicle id="flow_2_phase1_N_left.3" type="moto" depart="99.00" departLane="1" departPos="111.5719" departSpeed="0.0905" speedFactor="0.8878" arrival="139.00">
        <route edges="N_in E_out"/>
    </vehicle>

    <vehicle id="flow_14_phase1_W_left.3" type="moto" depart="104.00" departLane="0" departPos="173.6034" departSpeed="3.354" speedFactor="1.0873" arrival="141.00">
        <route edges="W_in N_out"/>
    </vehicle>

    <vehicle id="flow_6_phase1_S_left.2" type="truck" depart="67.00" departLane="1" departPos="2.2119" departSpeed="8.1689" speedFactor="0.8923" arrival="142.00">
        <route edges="S_in W_out"/>
    </vehicle>

    <vehicle id="flow_11_phase1_E_right.3" type="moto" depart="98.00" departLane="1" departPos="22.6438" departSpeed="7.7126" speedFactor="0.8330" arrival="144.00">
        <route edges="W_in E_out"/>
    </vehicle>

    <vehicle id="flow_13_phase1_W_straight.8" type="moto" depart="108.00" departLane="1" departPos="57.3268" departSpeed="6.4693" speedFactor="1.0413" arrival="144.00">
        <route edges="W_in E_out"/>
    </vehicle>

    <vehicle id="flow_13_phase1_W_straight.9" type="moto" depart="121.00" departLane="0" departPos="174.1059" departSpeed="0.3674" speedFactor="0.8391" arrival="145.00">
        <route edges="W_in E_out"/>
    </vehicle>

    <vehicle id="flow_9_phase1_E_straight.9" type="truck" depart="116.00" departLane="0" departPos="2.521" departSpeed="5.0906" speedFactor="1.0019" arrival="148.00">
        <route edges="E_in W_out"/>
    </vehicle>

    <vehicle id="flow_10_phase1_E_left.3" type="truck" depart="101.00" departLane="1" departPos="20.793" departSpeed="5.8396" speedFactor="1.0651" arrival="150.00">
        <route edges="E_in S_out"/>
    </vehicle>

    <vehicle id="flow_5_phase1_S_straight.9" type="moto" depart="120.00" departLane="1" departPos="9.2851" departSpeed="9.2081" speedFactor="1.2976" arrival="150.00">
        <route edges="S_in N_out"/>
    </vehicle>

    <vehicle id="flow_1_phase1_N_straight.9" type="truck" depart="122.00" departLane="1" departPos="53.9882" departSpeed="4.6093" speedFactor="0.9670" arrival="153.00">
        <route edges="N_in S_out"/>
    </vehicle>

    <vehicle id="flow_5_phase1_S_straight.10" type="moto" depart="133.00" departLane="0" departPos="151.3306" departSpeed="10.5782" speedFactor="1.0281" arrival="153.00">
        <route edges="S_in N_out"/>
    </vehicle>

    <vehicle id="flow_1_phase1_N_straight.8" type="moto" depart="109.00" departLane="1" departPos="58.7528" departSpeed="11.2015" speedFactor="0.9730" arrival="154.00">
        <route edges="N_in S_out"/>
    </vehicle>

    <vehicle id="flow_4_phase1_N_uturn.2" type="car" depart="133.00" departLane="0" departPos="174.2328" departSpeed="5.1231" speedFactor="1.0323" arrival="155.00">
        <route edges="N_in N_out"/>
    </vehicle>

    <vehicle id="flow_1_phase1_N_straight.10" type="bus" depart="136.00" departLane="0" departPos="131.4461" departSpeed="12.9319" speedFactor="1.0325" arrival="156.00">
        <route edges="N_in S_out"/>
    </vehicle>

    <vehicle id="flow_7_phase1_S_right.4" type="moto" depart="130.00" departLane="1" departPos="90.2975" departSpeed="6.7962" speedFactor="0.9645" arrival="157.00">
        <route edges="N_in S_out"/>
    </vehicle>

    <vehicle id="flow_6_phase1_S_left.3" type="car" depart="101.00" departLane="0" departPos="36.1365" departSpeed="9.2199" speedFactor="1.0972" arrival="159.00">
        <route edges="S_in W_out"/>
    </vehicle>

    <vehicle id="flow_2_phase1_N_left.4" type="moto" depart="131.00" departLane="1" departPos="55.6396" departSpeed="5.4621" speedFactor="1.1571" arrival="159.00">
        <route edges="N_in E_out"/>
    </vehicle>

    <vehicle id="flow_6_phase1_S_left.4" type="moto" depart="134.00" departLane="1" departPos="100.3851" departSpeed="2.6524" speedFactor="1.0387" arrival="161.00">
        <route edges="S_in W_out"/>
    </vehicle>

    <vehicle id="flow_3_phase1_N_right.4" type="moto" depart="137.00" departLane="0" departPos="114.5714" departSpeed="4.7289" speedFactor="1.0387" arrival="161.00">
        <route edges="N_in W_out"/>
    </vehicle>

    <vehicle id="flow_9_phase1_E_straight.10" type="moto" depart="129.00" departLane="1" departPos="103.2677" departSpeed="12.329" speedFactor="1.1157" arrival="165.00">
        <route edges="E_in W_out"/>
    </vehicle>

    <vehicle id="flow_15_phase1_W_right.4" type="bus" depart="132.00" departLane="0" departPos="140.1793" departSpeed="11.5102" speedFactor="0.9032" arrival="170.00">
        <route edges="W_in S_out"/>
    </vehicle>

    <vehicle id="flow_13_phase1_W_straight.10" type="moto" depart="134.00" departLane="0" departPos="77.131" departSpeed="8.0376" speedFactor="1.1421" arrival="172.00">
        <route edges="W_in E_out"/>
    </vehicle>

    <vehicle id="flow_9_phase1_E_straight.11" type="moto" depart="142.00" departLane="1" departPos="66.1547" departSpeed="12.3786" speedFactor="1.0448" arrival="172.00">
        <route edges="E_in W_out"/>
    </vehicle>

    <vehicle id="flow_16_phase1_W_uturn.2" type="car" depart="133.00" departLane="0" departPos="88.8236" departSpeed="7.0914" speedFactor="0.8850" arrival="173.00">
        <route edges="W_in S_out"/>
    </vehicle>

    <vehicle id="flow_9_phase1_E_straight.12" type="moto" depart="155.00" departLane="0" departPos="169.1917" departSpeed="9.8404" speedFactor="1.0047" arrival="173.00">
        <route edges="E_in W_out"/>
    </vehicle>

    <vehicle id="flow_11_phase1_E_right.4" type="container" depart="130.00" departLane="1" departPos="90.8186" departSpeed="11.1509" speedFactor="1.0240" arrival="174.00">
        <route edges="W_in E_out"/>
    </vehicle>

    <vehicle id="flow_1_phase1_N_straight.11" type="truck" depart="149.00" departLane="1" departPos="102.4537" departSpeed="0.5474" speedFactor="0.9137" arrival="179.00">
        <route edges="N_in S_out"/>
    </vehicle>

    <vehicle id="flow_8_phase1_S_uturn.2" type="moto" depart="132.00" departLane="1" departPos="60.4969" departSpeed="2.9711" speedFactor="0.9897" arrival="180.00">
        <route edges="S_in S_out"/>
    </vehicle>

    <vehicle id="flow_5_phase1_S_straight.12" type="moto" depart="159.00" departLane="1" departPos="170.5857" departSpeed="9.5374" speedFactor="1.0699" arrival="181.00">
        <route edges="S_in N_out"/>
    </vehicle>

    <vehicle id="flow_12_phase1_E_uturn.2" type="bus" depart="132.00" departLane="1" departPos="124.2821" departSpeed="3.1269" speedFactor="0.9315" arrival="182.00">
        <route edges="E_in E_out"/>
    </vehicle>

    <vehicle id="flow_5_phase1_S_straight.11" type="bus" depart="146.00" departLane="1" departPos="162.1669" departSpeed="9.6906" speedFactor="0.9784" arrival="184.00">
        <route edges="S_in N_out"/>
    </vehicle>

    <vehicle id="flow_2_phase1_N_left.5" type="car" depart="164.00" departLane="0" departPos="170.7684" departSpeed="5.2122" speedFactor="0.8868" arrival="187.00">
        <route edges="N_in E_out"/>
    </vehicle>

    <vehicle id="flow_13_phase1_W_straight.11" type="moto" depart="148.00" departLane="1" departPos="11.9624" departSpeed="0.8011" speedFactor="1.0140" arrival="192.00">
        <route edges="W_in E_out"/>
    </vehicle>

    <vehicle id="flow_13_phase1_W_straight.12" type="moto" depart="161.00" departLane="0" departPos="128.7404" departSpeed="4.1282" speedFactor="1.1365" arrival="193.00">
        <route edges="W_in E_out"/>
    </vehicle>

    <vehicle id="flow_15_phase1_W_right.5" type="car" depart="165.00" departLane="1" departPos="167.1176" departSpeed="0.8086" speedFactor="0.9653" arrival="196.00">
        <route edges="W_in S_out"/>
    </vehicle>

    <vehicle id="flow_10_phase1_E_left.4" type="moto" depart="134.00" departLane="1" departPos="45.6162" departSpeed="9.0698" speedFactor="1.0039" arrival="197.00">
        <route edges="E_in S_out"/>
    </vehicle>

    <vehicle id="flow_11_phase1_E_right.5" type="moto" depart="163.00" departLane="1" departPos="38.4375" departSpeed="1.3148" speedFactor="1.2552" arrival="198.00">
        <route edges="W_in E_out"/>
    </vehicle>

    <vehicle id="flow_9_phase1_E_straight.13" type="moto" depart="168.00" departLane="1" departPos="50.8725" departSpeed="11.0211" speedFactor="0.9282" arrival="198.00">
        <route edges="E_in W_out"/>
    </vehicle>

    <vehicle id="flow_10_phase1_E_left.5" type="moto" depart="168.00" departLane="1" departPos="43.1771" departSpeed="3.5778" speedFactor="1.0856" arrival="203.00">
        <route edges="E_in S_out"/>
    </vehicle>

    <vehicle id="flow_5_phase1_S_straight.13" type="moto" depart="172.00" departLane="1" departPos="120.4896" departSpeed="15.8451" speedFactor="1.2148" arrival="204.00">
        <route edges="S_in N_out"/>
    </vehicle>

    <vehicle id="flow_14_phase1_W_left.4" type="bus" depart="138.00" departLane="1" departPos="60.9644" departSpeed="4.8731" speedFactor="0.8196" arrival="208.00">
        <route edges="W_in N_out"/>
    </vehicle>

    <vehicle id="flow_7_phase1_S_right.5" type="truck" depart="163.00" departLane="1" departPos="21.3277" departSpeed="7.5038" speedFactor="1.0532" arrival="211.00">
        <route edges="N_in S_out"/>
    </vehicle>

    <vehicle id="flow_1_phase1_N_straight.12" type="truck" depart="163.00" departLane="0" departPos="28.3376" departSpeed="10.9032" speedFactor="0.9615" arrival="212.00">
        <route edges="N_in S_out"/>
    </vehicle>

    <vehicle id="flow_3_phase1_N_right.5" type="moto" depart="171.00" departLane="0" departPos="114.397" departSpeed="11.3491" speedFactor="0.9059" arrival="212.00">
        <route edges="N_in W_out"/>
    </vehicle>

    <vehicle id="flow_1_phase1_N_straight.14" type="car" depart="190.00" departLane="0" departPos="100.2317" departSpeed="10.1407" speedFactor="0.9718" arrival="214.00">
        <route edges="N_in S_out"/>
    </vehicle>

    <vehicle id="flow_1_phase1_N_straight.13" type="truck" depart="176.00" departLane="0" departPos="27.7577" departSpeed="11.1191" speedFactor="0.9465" arrival="215.00">
        <route edges="N_in S_out"/>
    </vehicle>

    <vehicle id="flow_9_phase1_E_straight.14" type="moto" depart="181.00" departLane="1" departPos="144.3484" departSpeed="0.17" speedFactor="0.8543" arrival="221.00">
        <route edges="E_in W_out"/>
    </vehicle>

    <vehicle id="flow_6_phase1_S_left.5" type="bus" depart="168.00" departLane="0" departPos="98.6919" departSpeed="1.6319" speedFactor="0.9819" arrival="222.00">
        <route edges="S_in W_out"/>
    </vehicle>

    <vehicle id="flow_13_phase1_W_straight.13" type="moto" depart="174.00" departLane="1" departPos="138.898" departSpeed="10.7986" speedFactor="0.8917" arrival="224.00">
        <route edges="W_in E_out"/>
    </vehicle>

    <vehicle id="flow_13_phase1_W_straight.14" type="moto" depart="188.00" departLane="1" departPos="122.1483" departSpeed="15.5396" speedFactor="1.1523" arrival="226.00">
        <route edges="W_in E_out"/>
    </vehicle>

    <vehicle id="flow_9_phase1_E_straight.15" type="bus" depart="194.00" departLane="0" departPos="154.1317" departSpeed="9.6566" speedFactor="0.8815" arrival="227.00">
        <route edges="E_in W_out"/>
    </vehicle>

    <vehicle id="flow_16_phase1_W_uturn.3" type="bus" depart="199.00" departLane="1" departPos="135.4921" departSpeed="11.2843" speedFactor="0.9363" arrival="230.00">
        <route edges="W_in S_out"/>
    </vehicle>

    <vehicle id="flow_7_phase1_S_right.6" type="car" depart="195.00" departLane="0" departPos="98.4033" departSpeed="6.6982" speedFactor="1.1275" arrival="233.00">
        <route edges="N_in S_out"/>
    </vehicle>

    <vehicle id="flow_14_phase1_W_left.5" type="bus" depart="173.00" departLane="1" departPos="0.9771" departSpeed="8.1808" speedFactor="0.9554" arrival="234.00">
        <route edges="W_in N_out"/>
    </vehicle>

    <vehicle id="flow_8_phase1_S_uturn.3" type="car" depart="198.00" departLane="0" departPos="175.8273" departSpeed="1.4914" speedFactor="0.8963" arrival="234.00">
        <route edges="S_in S_out"/>
    </vehicle>

    <vehicle id="flow_5_phase1_S_straight.14" type="car" depart="186.00" departLane="0" departPos="26.4929" departSpeed="0.4463" speedFactor="0.8047" arrival="235.00">
        <route edges="S_in N_out"/>
    </vehicle>

    <vehicle id="flow_5_phase1_S_straight.16" type="moto" depart="212.00" departLane="0" departPos="163.9951" departSpeed="6.3801" speedFactor="1.2172" arrival="236.00">
        <route edges="S_in N_out"/>
    </vehicle>

    <vehicle id="flow_1_phase1_N_straight.15" type="car" depart="203.00" departLane="0" departPos="80.2096" departSpeed="10.0982" speedFactor="0.9311" arrival="238.00">
        <route edges="N_in S_out"/>
    </vehicle>

    <vehicle id="flow_5_phase1_S_straight.15" type="container" depart="199.00" departLane="1" departPos="46.7196" departSpeed="2.5471" speedFactor="0.9628" arrival="241.00">
        <route edges="S_in N_out"/>
    </vehicle>

    <vehicle id="flow_3_phase1_N_right.6" type="truck" depart="206.00" departLane="1" departPos="30.7552" departSpeed="2.9258" speedFactor="0.9035" arrival="243.00">
        <route edges="N_in W_out"/>
    </vehicle>

    <vehicle id="flow_15_phase1_W_right.6" type="car" depart="198.00" departLane="0" departPos="55.9807" departSpeed="0.8827" speedFactor="0.9559" arrival="244.00">
        <route edges="W_in S_out"/>
    </vehicle>

    <vehicle id="flow_4_phase1_N_uturn.3" type="bus" depart="199.00" departLane="1" departPos="163.2859" departSpeed="1.4711" speedFactor="0.9700" arrival="244.00">
        <route edges="N_in N_out"/>
    </vehicle>

    <vehicle id="flow_6_phase1_S_left.6" type="bus" depart="201.00" departLane="1" departPos="165.4841" departSpeed="5.3719" speedFactor="1.0167" arrival="245.00">
        <route edges="S_in W_out"/>
    </vehicle>

    <vehicle id="flow_9_phase1_E_straight.16" type="moto" depart="207.00" departLane="0" departPos="58.4782" departSpeed="7.3167" speedFactor="0.8950" arrival="246.00">