<?xml version="1.0" encoding="UTF-8"?>

<!-- generated on 2025-12-08 21:21:06 by Eclipse SUMO sumo Version 1.18.0
<configuration xmlns:xsi="http://www.w3.org/2001/XMLSchema-instance" xsi:noNamespaceSchemaLocation="http://sumo.dlr.de/xsd/sumoConfiguration.xsd">

    <input>
        <net-file value="/workspace/nets/60p2k/net.net.xml"/>
        <route-files value="/workspace/nets/60p2k/route_temp_244_130720908769792_63793894.rou.xml"/>
    </input>

    <output>
        <summary-output value="results/summary_ep_1.xml"/>
        <tripinfo-output value="results/tripinfo_ep_1.xml"/>
        <vehroute-output value="results/vehroute_ep_1.xml"/>
    </output>

    <time>
        <begin value="0"/>
    </time>

    <report>
        <verbose value="true"/>
        <no-step-log value="true"/>
    </report>

    <traci_server>
        <remote-port value="60751"/>
    </traci_server>

    <gui_only>
        <gui-settings-file value="/workspace/nets/60p2k/gui-settings.xml"/>
        <quit-on-end value="true"/>
    </gui_only>

</configuration>
-->

<routes xmlns:xsi="http://www.w3.org/2001/XMLSchema-instance" xsi:noNamespaceSchemaLocation="http://sumo.dlr.de/xsd/routes_file.xsd">
    <vehicle id="flow_3_phase1_N_right.0" type="car" depart="0.00" departLane="0" departPos="103.3842" departSpeed="3.7523" speedFactor="1.0907" arrival="24.00">
        <route edges="N_in W_out"/>
    </vehicle>

    <vehicle id="flow_6_phase1_S_left.0" type="moto" depart="0.00" departLane="1" departPos="166.0107" departSpeed="0.7376" speedFactor="0.8806" arrival="25.00">
        <route edges="S_in W_out"/>
    </vehicle>

    <vehicle id="flow_16_phase1_W_uturn.0" type="moto" depart="0.00" departLane="1" departPos="126.6766" departSpeed="1.2848" speedFactor="1.0383" arrival="25.00">
        <route edges="S_in S_out"/>
    </vehicle>

    <vehicle id="flow_5_phase1_S_straight.0" type="moto" depart="0.00" departLane="1" departPos="107.3659" departSpeed="7.2113" speedFactor="1.1475" arrival="26.00">
        <route edges="S_in N_out"/>
    </vehicle>

    <vehicle id="flow_4_phase1_N_uturn.0" type="car" depart="0.00" departLane="1" departPos="127.6015" departSpeed="0.0774" speedFactor="0.9228" arrival="31.00">
        <route edges="N_in N_out"/>
    </vehicle>

    <vehicle id="flow_10_phase1_E_left.0" type="truck" depart="0.00" departLane="0" departPos="44.8816" departSpeed="7.6878" speedFactor="1.0161" arrival="31.00">
        <route edges="S_in E_out"/>
    </vehicle>

    <vehicle id="flow_12_phase1_E_uturn.0" type="moto" depart="0.00" departLane="0" departPos="5.6544" departSpeed="13.7593" speedFactor="1.0348" arrival="36.00">
        <route edges="E_in E_out"/>
    </vehicle>

    <vehicle id="flow_7_phase1_S_right.0" type="container" depart="0.00" departLane="0" departPos="8.759" departSpeed="8.0654" speedFactor="0.8488" arrival="38.00">
        <route edges="W_in E_out"/>
    </vehicle>

    <vehicle id="flow_14_phase1_W_left.0" type="moto" depart="0.00" departLane="1" departPos="42.3057" departSpeed="3.7077" speedFactor="1.0101" arrival="38.00">
        <route edges="E_in W_out"/>
    </vehicle>

    <vehicle id="flow_9_phase1_E_straight.1" type="moto" depart="13.00" departLane="0" departPos="131.129" departSpeed="9.5396" speedFactor="1.1582" arrival="39.00">
        <route edges="E_in W_out"/>
    </vehicle>

    <vehicle id="flow_9_phase1_E_straight.0" type="truck" depart="0.00" departLane="0" departPos="168.2937" departSpeed="9.8263" speedFactor="0.8990" arrival="41.00">
        <route edges="E_in W_out"/>
    </vehicle>

    <vehicle id="flow_8_phase1_S_uturn.0" type="moto" depart="0.00" departLane="0" departPos="120.1072" departSpeed="4.4837" speedFactor="1.0505" arrival="42.00">
        <route edges="W_in N_out"/>
    </vehicle>

    <vehicle id="flow_11_phase1_E_right.0" type="bus" depart="0.00" departLane="1" departPos="144.9496" departSpeed="4.0187" speedFactor="0.9581" arrival="42.00">
        <route edges="E_in N_out"/>
    </vehicle>

    <vehicle id="flow_2_phase1_N_left.0" type="moto" depart="0.00" departLane="1" departPos="8.2688" departSpeed="8.3291" speedFactor="1.0157" arrival="45.00">
        <route edges="W_in W_out"/>
    </vehicle>

    <vehicle id="flow_5_phase1_S_straight.1" type="moto" depart="14.00" departLane="1" departPos="31.9285" departSpeed="9.2811" speedFactor="1.1853" arrival="46.00">
        <route edges="S_in N_out"/>
    </vehicle>

    <vehicle id="flow_15_phase1_W_right.0" type="moto" depart="0.00" departLane="1" departPos="45.7673" departSpeed="6.7313" speedFactor="0.8472" arrival="47.00">
        <route edges="W_in N_out"/>
    </vehicle>

    <vehicle id="flow_13_phase1_W_straight.0" type="container" depart="0.00" departLane="0" departPos="77.991" departSpeed="3.7887" speedFactor="0.8227" arrival="58.00">
        <route edges="S_in S_out"/>
    </vehicle>

    <vehicle id="flow_1_phase1_N_straight.0" type="bus" depart="0.00" departLane="0" departPos="8.6229" departSpeed="8.5053" speedFactor="0.8588" arrival="61.00">
        <route edges="S_in S_out"/>
    </vehicle>

    <vehicle id="flow_9_phase1_E_straight.2" type="moto" depart="26.00" departLane="1" departPos="52.8684" departSpeed="0.3845" speedFactor="0.9938" arrival="63.00">
        <route edges="E_in W_out"/>
    </vehicle>

    <vehicle id="flow_11_phase1_E_right.1" type="moto" depart="33.00" departLane="0" departPos="73.8966" departSpeed="8.8622" speedFactor="1.0365" arrival="63.00">
        <route edges="E_in N_out"/>
    </vehicle>

    <vehicle id="flow_10_phase1_E_left.1" type="truck" depart="34.00" departLane="0" departPos="166.0021" departSpeed="1.1157" speedFactor="0.7665" arrival="63.00">
        <route edges="S_in E_out"/>
    </vehicle>

    <vehicle id="flow_14_phase1_W_left.1" type="container" depart="35.00" departLane="0" departPos="86.4153" departSpeed="7.5828" speedFactor="0.9146" arrival="63.00">
        <route edges="E_in W_out"/>
    </vehicle>

    <vehicle id="flow_7_phase1_S_right.1" type="container" depart="33.00" departLane="1" departPos="128.6773" departSpeed="2.3158" speedFactor="0.7845" arrival="65.00">
        <route edges="W_in E_out"/>
    </vehicle>

    <vehicle id="flow_2_phase1_N_left.1" type="moto" depart="33.00" departLane="1" departPos="66.71" departSpeed="11.2663" speedFactor="1.1228" arrival="70.00">
        <route edges="W_in W_out"/>
    </vehicle>

    <vehicle id="flow_9_phase1_E_straight.3" type="bus" depart="39.00" departLane="0" departPos="56.1823" departSpeed="6.7897" speedFactor="0.8515" arrival="70.00">
        <route edges="E_in W_out"/>
    </vehicle>

    <vehicle id="flow_15_phase1_W_right.1" type="moto" depart="33.00" departLane="1" departPos="110.9191" departSpeed="2.7572" speedFactor="1.0788" arrival="72.00">
        <route edges="W_in N_out"/>
    </vehicle>

    <vehicle id="flow_13_phase1_W_straight.1" type="car" depart="14.00" departLane="1" departPos="121.6549" departSpeed="2.8591" speedFactor="1.1218" arrival="73.00">
        <route edges="S_in S_out"/>
    </vehicle>

    <vehicle id="flow_5_phase1_S_straight.3" type="moto" depart="40.00" departLane="0" departPos="132.6219" departSpeed="5.13" speedFactor="1.0764" arrival="74.00">
        <route edges="S_in N_out"/>
    </vehicle>

    <vehicle id="flow_3_phase1_N_right.1" type="moto" depart="35.00" departLane="0" departPos="93.4122" departSpeed="11.3212" speedFactor="0.8806" arrival="76.00">
        <route edges="N_in W_out"/>
    </vehicle>

    <vehicle id="flow_1_phase1_N_straight.1" type="moto" depart="14.00" departLane="1" departPos="58.3562" departSpeed="11.6446" speedFactor="0.8727" arrival="81.00">
        <route edges="S_in S_out"/>
    </vehicle>

    <vehicle id="flow_5_phase1_S_straight.2" type="moto" depart="27.00" departLane="1" departPos="12.6982" departSpeed="12.4143" speedFactor="0.9623" arrival="82.00">
        <route edges="S_in N_out"/>
    </vehicle>

    <vehicle id="flow_13_phase1_W_straight.2" type="bus" depart="27.00" departLane="1" departPos="59.5081" departSpeed="13.3195" speedFactor="0.9657" arrival="84.00">
        <route edges="S_in S_out"/>
    </vehicle>

    <vehicle id="flow_1_phase1_N_straight.3" type="moto" depart="41.00" departLane="0" departPos="125.4807" departSpeed="7.4612" speedFactor="1.2027" arrival="86.00">
        <route edges="S_in S_out"/>
    </vehicle>

    <vehicle id="flow_3_phase1_N_right.2" type="moto" depart="69.00" departLane="1" departPos="174.3479" departSpeed="2.9984" speedFactor="1.1043" arrival="87.00">
        <route edges="N_in W_out"/>
    </vehicle>

    <vehicle id="flow_6_phase1_S_left.1" type="moto" depart="34.00" departLane="1" departPos="4.5211" departSpeed="5.3059" speedFactor="1.0453" arrival="88.00">
        <route edges="S_in W_out"/>
    </vehicle>

    <vehicle id="flow_1_phase1_N_straight.2" type="moto" depart="28.00" departLane="1" departPos="8.8817" departSpeed="1.1094" speedFactor="0.9279" arrival="90.00">
        <route edges="S_in S_out"/>
    </vehicle>

    <vehicle id="flow_13_phase1_W_straight.3" type="car" depart="41.00" departLane="1" departPos="23.5668" departSpeed="4.096" speedFactor="1.0479" arrival="91.00">
        <route edges="S_in S_out"/>
    </vehicle>

    <vehicle id="flow_1_phase1_N_straight.4" type="truck" depart="55.00" departLane="1" departPos="65.3279" departSpeed="11.5583" speedFactor="0.9194" arrival="98.00">
        <route edges="S_in S_out"/>
    </vehicle>

    <vehicle id="flow_4_phase1_N_uturn.1" type="moto" depart="67.00" departLane="0" departPos="64.2471" departSpeed="6.1278" speedFactor="0.9374" arrival="98.00">
        <route edges="N_in N_out"/>
    </vehicle>

    <vehicle id="flow_5_phase1_S_straight.4" type="container" depart="53.00" departLane="0" departPos="8.0759" departSpeed="6.4761" speedFactor="0.9706" arrival="103.00">
        <route edges="S_in N_out"/>
    </vehicle>

    <vehicle id="flow_10_phase1_E_left.2" type="moto" depart="67.00" departLane="1" departPos="74.602" departSpeed="12.6235" speedFactor="1.0668" arrival="103.00">
        <route edges="S_in E_out"/>
    </vehicle>

    <vehicle id="flow_13_phase1_W_straight.4" type="bus" depart="54.00" departLane="0" departPos="160.3044" departSpeed="3.1485" speedFactor="0.8691" arrival="105.00">
        <route edges="S_in S_out"/>
    </vehicle>

    <vehicle id="flow_5_phase1_S_straight.5" type="moto" depart="67.00" departLane="1" departPos="2.2119" departSpeed="9.3975" speedFactor="1.0265" arrival="105.00">
        <route edges="S_in N_out"/>
    </vehicle>

    <vehicle id="flow_16_phase1_W_uturn.1" type="moto" depart="67.00" departLane="1" departPos="137.1078" departSpeed="2.2146" speedFactor="1.0390" arrival="106.00">
        <route edges="S_in S_out"/>
    </vehicle>

    <vehicle id="flow_5_phase1_S_straight.6" type="moto" depart="80.00" departLane="0" departPos="107.805" departSpeed="3.3681" speedFactor="1.0983" arrival="107.00">
        <route edges="S_in N_out"/>
    </vehicle>

    <vehicle id="flow_13_phase1_W_straight.5" type="moto" depart="67.00" departLane="1" departPos="63.1043" departSpeed="7.7328" speedFactor="1.1413" arrival="108.00">
        <route edges="S_in S_out"/>
    </vehicle>

    <vehicle id="flow_6_phase1_S_left.2" type="truck" depart="67.00" departLane="0" departPos="78.0885" departSpeed="11.2761" speedFactor="0.8923" arrival="109.00">
        <route edges="S_in W_out"/>
    </vehicle>

    <vehicle id="flow_1_phase1_N_straight.5" type="moto" depart="68.00" departLane="1" departPos="42.8454" departSpeed="4.5952" speedFactor="0.9020" arrival="114.00">
        <route edges="S_in S_out"/>
    </vehicle>

    <vehicle id="flow_7_phase1_S_right.2" type="moto" depart="65.00" departLane="1" departPos="111.6918" departSpeed="6.1584" speedFactor="1.0283" arrival="118.00">
        <route edges="W_in E_out"/>
    </vehicle>

    <vehicle id="flow_9_phase1_E_straight.5" type="moto" depart="65.00" departLane="1" departPos="129.0888" departSpeed="5.2554" speedFactor="0.9964" arrival="118.00">
        <route edges="E_in W_out"/>
    </vehicle>

    <vehicle id="flow_11_phase1_E_right.2" type="moto" depart="65.00" departLane="1" departPos="19.5053" departSpeed="9.1106" speedFactor="1.1432" arrival="121.00">
        <route edges="E_in N_out"/>
    </vehicle>

    <vehicle id="flow_12_phase1_E_uturn.1" type="moto" depart="66.00" departLane="0" departPos="91.5182" departSpeed="11.7366" speedFactor="0.9517" arrival="121.00">
        <route edges="E_in E_out"/>
    </vehicle>

    <vehicle id="flow_9_phase1_E_straight.4" type="bus" depart="52.00" departLane="0" departPos="167.2268" departSpeed="1.8689" speedFactor="0.9525" arrival="123.00">
        <route edges="E_in W_out"/>
    </vehicle>

    <vehicle id="flow_14_phase1_W_left.2" type="car" depart="69.00" departLane="0" departPos="161.3057" departSpeed="3.1251" speedFactor="0.8975" arrival="123.00">
        <route edges="E_in W_out"/>
    </vehicle>

    <vehicle id="flow_9_phase1_E_straight.6" type="moto" depart="78.00" departLane="1" departPos="45.2041" departSpeed="2.702" speedFactor="1.0203" arrival="125.00">
        <route edges="E_in W_out"/>
    </vehicle>

    <vehicle id="flow_9_phase1_E_straight.7" type="moto" depart="91.00" departLane="0" departPos="1.3904" departSpeed="6.3882" speedFactor="1.0085" arrival="126.00">
        <route edges="E_in W_out"/>
    </vehicle>

    <vehicle id="flow_2_phase1_N_left.2" type="emergency" depart="66.00" departLane="0" departPos="155.6805" departSpeed="9.793" speedFactor="1.0989" arrival="127.00">
        <route edges="W_in W_out"/>
    </vehicle>

    <vehicle id="flow_11_phase1_E_right.3" type="moto" depart="98.00" departLane="0" departPos="171.5609" departSpeed="1.1361" speedFactor="0.8330" arrival="128.00">
        <route edges="E_in N_out"/>
    </vehicle>

    <vehicle id="flow_1_phase1_N_straight.6" type="car" depart="82.00" departLane="1" departPos="126.2936" departSpeed="0.4716" speedFactor="0.9797" arrival="131.00">
        <route edges="S_in S_out"/>
    </vehicle>

    <vehicle id="flow_3_phase1_N_right.3" type="moto" depart="103.00" departLane="1" departPos="109.1161" departSpeed="2.8303" speedFactor="0.9618" arrival="131.00">
        <route edges="N_in W_out"/>
    </vehicle>

    <vehicle id="flow_13_phase1_W_straight.6" type="car" depart="81.00" departLane="0" departPos="16.037" departSpeed="5.471" speedFactor="0.9759" arrival="135.00">
        <route edges="S_in S_out"/>
    </vehicle>

    <vehicle id="flow_6_phase1_S_left.3" type="car" depart="101.00" departLane="0" departPos="157.0309" departSpeed="11.6062" speedFactor="1.0972" arrival="136.00">
        <route edges="S_in W_out"/>
    </vehicle>

    <vehicle id="flow_5_phase1_S_straight.7" type="bus" depart="93.00" departLane="0" departPos="81.5805" departSpeed="1.0689" speedFactor="0.9040" arrival="142.00">
        <route edges="S_in N_out"/>
    </vehicle>

    <vehicle id="flow_7_phase1_S_right.3" type="moto" depart="98.00" departLane="1" departPos="109.812" departSpeed="0.173" speedFactor="1.0682" arrival="144.00">
        <route edges="W_in E_out"/>
    </vehicle>

    <vehicle id="flow_14_phase1_W_left.3" type="moto" depart="104.00" departLane="0" departPos="65.0172" departSpeed="3.0521" speedFactor="1.0873" arrival="145.00">
        <route edges="E_in W_out"/>
    </vehicle>

    <vehicle id="flow_9_phase1_E_straight.8" type="moto" depart="104.00" departLane="1" departPos="5.9732" departSpeed="0.4114" speedFactor="0.9385" arrival="148.00">
        <route edges="E_in W_out"/>
    </vehicle>

    <vehicle id="flow_9_phase1_E_straight.9" type="truck" depart="116.00" departLane="1" departPos="168.3233" departSpeed="4.7542" speedFactor="1.0019" arrival="148.00">
        <route edges="E_in W_out"/>
    </vehicle>

    <vehicle id="flow_9_phase1_E_straight.10" type="moto" depart="129.00" departLane="0" departPos="140.1793" departSpeed="14.2183" speedFactor="1.1157" arrival="149.00">
        <route edges="E_in W_out"/>
    </vehicle>

    <vehicle id="flow_7_phase1_S_right.4" type="moto" depart="130.00" departLane="0" departPos="174.2328" departSpeed="4.7866" speedFactor="0.9645" arrival="150.00">
        <route edges="W_in E_out"/>
    </vehicle>

    <vehicle id="flow_15_phase1_W_right.2" type="moto" depart="66.00" departLane="1" departPos="65.5698" departSpeed="2.068" speedFactor="0.8882" arrival="154.00">
        <route edges="W_in N_out"/>
    </vehicle>

    <vehicle id="flow_12_phase1_E_uturn.2" type="bus" depart="132.00" departLane="0" departPos="169.9316" departSpeed="9.4169" speedFactor="0.9315" arrival="157.00">
        <route edges="E_in E_out"/>
    </vehicle>

    <vehicle id="flow_8_phase1_S_uturn.1" type="truck" depart="66.00" departLane="1" departPos="2.773" departSpeed="7.1733" speedFactor="0.9396" arrival="159.00">
        <route edges="W_in N_out"/>
    </vehicle>

    <vehicle id="flow_1_phase1_N_straight.7" type="moto" depart="95.00" departLane="0" departPos="20.793" departSpeed="14.5086" speedFactor="1.0626" arrival="160.00">
        <route edges="S_in S_out"/>
    </vehicle>

    <vehicle id="flow_5_phase1_S_straight.9" type="moto" depart="120.00" departLane="1" departPos="40.9491" departSpeed="2.4573" speedFactor="1.2976" arrival="160.00">
        <route edges="S_in N_out"/>
    </vehicle>

    <vehicle id="flow_3_phase1_N_right.4" type="moto" depart="137.00" departLane="0" departPos="129.443" departSpeed="7.8018" speedFactor="1.0387" arrival="160.00">
        <route edges="N_in W_out"/>
    </vehicle>

    <vehicle id="flow_13_phase1_W_straight.7" type="moto" depart="94.00" departLane="0" departPos="114.6211" departSpeed="8.2211" speedFactor="0.8003" arrival="161.00">
        <route edges="S_in S_out"/>
    </vehicle>

    <vehicle id="flow_10_phase1_E_left.3" type="truck" depart="101.00" departLane="1" departPos="69.3051" departSpeed="13.8794" speedFactor="1.0651" arrival="161.00">
        <route edges="S_in E_out"/>
    </vehicle>

    <vehicle id="flow_5_phase1_S_straight.8" type="emergency" depart="106.00" departLane="1" departPos="150.7313" departSpeed="0.6256" speedFactor="1.1380" arrival="161.00">
        <route edges="S_in N_out"/>
    </vehicle>

    <vehicle id="flow_5_phase1_S_straight.10" type="moto" depart="133.00" departLane="0" departPos="149.7816" departSpeed="4.6806" speedFactor="1.0281" arrival="163.00">
        <route edges="S_in N_out"/>
    </vehicle>

    <vehicle id="flow_13_phase1_W_straight.8" type="moto" depart="108.00" departLane="0" departPos="96.1141" departSpeed="8.4466" speedFactor="1.0413" arrival="164.00">
        <route edges="S_in S_out"/>
    </vehicle>

    <vehicle id="flow_10_phase1_E_left.4" type="moto" depart="134.00" departLane="1" departPos="66.1547" departSpeed="7.8887" speedFactor="1.0039" arrival="164.00">
        <route edges="S_in E_out"/>
    </vehicle>

    <vehicle id="flow_4_phase1_N_uturn.2" type="car" depart="133.00" departLane="0" departPos="131.4461" departSpeed="13.6907" speedFactor="1.0323" arrival="165.00">
        <route edges="N_in N_out"/>
    </vehicle>

    <vehicle id="flow_9_phase1_E_straight.11" type="moto" depart="142.00" departLane="1" departPos="113.0073" departSpeed="13.0663" speedFactor="1.0448" arrival="170.00">
        <route edges="E_in W_out"/>
    </vehicle>

    <vehicle id="flow_11_phase1_E_right.4" type="container" depart="130.00" departLane="0" departPos="5.0473" departSpeed="10.3631" speedFactor="1.0240" arrival="176.00">
        <route edges="E_in N_out"/>
    </vehicle>

    <vehicle id="flow_14_phase1_W_left.4" type="bus" depart="138.00" departLane="1" departPos="41.7947" departSpeed="10.1662" speedFactor="0.8196" arrival="176.00">
        <route edges="E_in W_out"/>
    </vehicle>

    <vehicle id="flow_9_phase1_E_straight.12" type="moto" depart="155.00" departLane="0" departPos="158.7036" departSpeed="2.8312" speedFactor="1.0047" arrival="176.00">
        <route edges="E_in W_out"/>
    </vehicle>

    <vehicle id="flow_15_phase1_W_right.3" type="moto" depart="99.00" departLane="0" departPos="84.7431" departSpeed="5.5476" speedFactor="1.1705" arrival="178.00">
        <route edges="W_in N_out"/>
    </vehicle>

    <vehicle id="flow_2_phase1_N_left.3" type="moto" depart="99.00" departLane="0" departPos="43.7958" departSpeed="11.2993" speedFactor="0.8878" arrival="182.00">
        <route edges="W_in W_out"/>
    </vehicle>

    <vehicle id="flow_1_phase1_N_straight.8" type="moto" depart="109.00" departLane="0" departPos="90.8186" departSpeed="9.524" speedFactor="0.9730" arrival="184.00">
        <route edges="S_in S_out"/>
    </vehicle>

    <vehicle id="flow_5_phase1_S_straight.11" type="bus" depart="146.00" departLane="0" departPos="72.1694" departSpeed="9.2344" speedFactor="0.9784" arrival="187.00">
        <route edges="S_in N_out"/>
    </vehicle>

    <vehicle id="flow_1_phase1_N_straight.9" type="truck" depart="122.00" departLane="0" departPos="124.2821" departSpeed="12.0112" speedFactor="0.9670" arrival="189.00">
        <route edges="S_in S_out"/>
    </vehicle>

    <vehicle id="flow_13_phase1_W_straight.9" type="moto" depart="121.00" departLane="0" departPos="45.7887" departSpeed="7.6172" speedFactor="0.8391" arrival="193.00">
        <route edges="S_in S_out"/>
    </vehicle>

    <vehicle id="flow_3_phase1_N_right.5" type="moto" depart="171.00" departLane="0" departPos="154.1317" departSpeed="9.9239" speedFactor="0.9059" arrival="193.00">
        <route edges="N_in W_out"/>
    </vehicle>

    <vehicle id="flow_11_phase1_E_right.5" type="moto" depart="163.00" departLane="1" departPos="0.9771" departSpeed="9.8564" speedFactor="1.2552" arrival="195.00">
        <route edges="E_in N_out"/>
    </vehicle>

    <vehicle id="flow_2_phase1_N_left.4" type="moto" depart="131.00" departLane="1" departPos="75.2144" departSpeed="7.4957" speedFactor="1.1571" arrival="197.00">
        <route edges="W_in W_out"/>
    </vehicle>

    <vehicle id="flow_9_phase1_E_straight.13" type="moto" depart="168.00" departLane="0" departPos="184.144" departSpeed="0.6767" speedFactor="0.9282" arrival="197.00">
        <route edges="E_in W_out"/>
    </vehicle>

    <vehicle id="flow_8_phase1_S_uturn.2" type="moto" depart="132.00" departLane="1" departPos="159.8742" departSpeed="7.2837" speedFactor="0.9897" arrival="200.00">
        <route edges="W_in N_out"/>
    </vehicle>

    <vehicle id="flow_7_phase1_S_right.5" type="truck" depart="163.00" departLane="1" departPos="120.4896" departSpeed="14.4978" speedFactor="1.0532" arrival="200.00">
        <route edges="W_in E_out"/>
    </vehicle>

    <vehicle id="flow_14_phase1_W_left.5" type="bus" depart="173.00" departLane="1" departPos="28.4645" departSpeed="7.2282" speedFactor="0.9554" arrival="204.00">
        <route edges="E_in W_out"/>
    </vehicle>

    <vehicle id="flow_5_phase1_S_straight.12" type="moto" depart="159.00" departLane="1" departPos="11.4261" departSpeed="13.3945" speedFactor="1.0699" arrival="211.00">
        <route edges="S_in N_out"/>
    </vehicle>

    <vehicle id="flow_10_phase1_E_left.5" type="moto" depart="168.00" departLane="1" departPos="100.2317" departSpeed="7.8581" speedFactor="1.0856" arrival="211.00">
        <route edges="S_in E_out"/>
    </vehicle>

    <vehicle id="flow_5_phase1_S_straight.13" type="moto" depart="172.00" departLane="0" departPos="98.4033" departSpeed="6.8383" speedFactor="1.2148" arrival="213.00">
        <route edges="S_in N_out"/>
    </vehicle>

    <vehicle id="flow_13_phase1_W_straight.13" type="moto" depart="174.00" departLane="0" departPos="188.0912" departSpeed="1.5078" speedFactor="0.8917" arrival="213.00">
        <route edges="S_in S_out"/>
    </vehicle>

    <vehicle id="flow_15_phase1_W_right.4" type="bus" depart="132.00" departLane="0" departPos="57.4616" departSpeed="5.1073" speedFactor="0.9032" arrival="214.00">
        <route edges="W_in N_out"/>
    </vehicle>

    <vehicle id="flow_6_phase1_S_left.4" type="moto" depart="134.00" departLane="0" departPos="60.9644" departSpeed="12.8599" speedFactor="1.0387" arrival="214.00">
        <route edges="S_in W_out"/>
    </vehicle>

    <vehicle id="flow_16_phase1_W_uturn.2" type="car" depart="133.00" departLane="1" departPos="81.1005" departSpeed="0.2018" speedFactor="0.8850" arrival="217.00">
        <route edges="S_in S_out"/>
    </vehicle>

    <vehicle id="flow_7_phase1_S_right.6" type="car" depart="195.00" departLane="0" departPos="79.4706" departSpeed="10.4679" speedFactor="1.1275" arrival="219.00">
        <route edges="W_in E_out"/>
    </vehicle>

    <vehicle id="flow_9_phase1_E_straight.14" type="moto" depart="181.00" departLane="1" departPos="24.2894" departSpeed="11.0987" speedFactor="0.8543" arrival="225.00">
        <route edges="E_in W_out"/>
    </vehicle>

    <vehicle id="flow_12_phase1_E_uturn.3" type="moto" depart="198.00" departLane="0" departPos="111.5109" departSpeed="6.6345" speedFactor="1.0747" arrival="226.00">
        <route edges="E_in E_out"/>
    </vehicle>

    <vehicle id="flow_9_phase1_E_straight.15" type="bus" depart="194.00" departLane="1" departPos="175.2569" departSpeed="4.0891" speedFactor="0.8815" arrival="227.00">
        <route edges="E_in W_out"/>
    </vehicle>

    <vehicle id="flow_11_phase1_E_right.6" type="car" depart="195.00" departLane="0" departPos="15.5939" departSpeed="7.6835" speedFactor="0.9838" arrival="227.00">
        <route edges="E_in N_out"/>
    </vehicle>

    <vehicle id="flow_9_phase1_E_straight.16" type="moto" depart="207.00" departLane="0" departPos="154.9386" departSpeed="10.9862" speedFactor="0.8950" arrival="230.00">
        <route edges="E_in W_out"/>
    </vehicle>

    <vehicle id="flow_13_phase1_W_straight.10" type="moto" depart="134.00" departLane="1" departPos="27.2886" departSpeed="15.6975" speedFactor="1.1421" arrival="232.00">
        <route edges="S_in S_out"/>
    </vehicle>

    <vehicle id="flow_15_phase1_W_right.5" type="car" depart="165.00" departLane="0" departPos="108.1078" departSpeed="1.9644" speedFactor="0.9653" arrival="232.00">
        <route edges="W_in N_out"/>
    </vehicle>

    <vehicle id="flow_3_phase1_N_right.6" type="truck" depart="206.00" departLane="1" departPos="127.6195" departSpeed="1.6106" speedFactor="0.9035" arrival="237.00">
        <route edges="N_in W_out"/>
    </vehicle>

    <vehicle id="flow_4_phase1_N_uturn.3" type="bus" depart="199.00" departLane="1" departPos="98.8542" departSpeed="8.0088" speedFactor="0.9700" arrival="238.00">
        <route edges="N_in N_out"/>
    </vehicle>

    <vehicle id="flow_1_phase1_N_straight.10" type="bus" depart="136.00" departLane="1" departPos="47.2903" departSpeed="0.9055" speedFactor="1.0325" arrival="240.00">
        <route edges="S_in S_out"/>
    </vehicle>

    <vehicle id="flow_1_phase1_N_straight.16" type="moto" depart="217.00" departLane="0" departPos="186.1574" departSpeed="3.0685" speedFactor="1.0821" arrival="242.00">
        <route edges="S_in S_out"/>
    </vehicle>

    <vehicle id="flow_7_phase1_S_right.7" type="moto" depart="228.00" departLane="0" departPos="169.2172" departSpeed="9.0092" speedFactor="0.9986" arrival="246.00">
        <route edges="W_in E_out"/>
    </vehicle>

    <vehicle id="flow_9_phase1_E_straight.17" type="moto" depart="219.00" departLane="1" departPos="125.9683" departSpeed="12.8157" speedFactor="1.1149" arrival="247.00">
        <route edges="E_in W_out"/>
    </vehicle>

    <vehicle id="flow_14_phase1_W_left.6" type="moto" depart="207.00" departLane="0" departPos="3.4345" departSpeed="11.4363" speedFactor="0.8697" arrival="251.00">
        <route edges="E_in W_out"/>
    </vehicle>

    <vehicle id="flow_9_phase1_E_straight.18" type="car" depart="232.00" departLane="1" departPos="145.5875" departSpeed="6.4769" speedFactor="1.0350" arrival="252.00">
        <route edges="E_in W_out"/>
    </vehicle>

    <vehicle id="flow_2_phase1_N_left.5" type="car" depart="164.00" departLane="1" departPos="62.3987" departSpeed="10.7393" speedFactor="0.8868" arrival="258.00">
        <route edges="W_in W_out"/>
    </vehicle>

    <vehicle id="flow_1_phase1_N_straight.15" type="car" depart="203.00" departLane="0" departPos="166.1364" departSpeed="2.2955" speedFactor="0.9311" arrival="262.00">
        <route edges="S_in S_out"/>
    </vehicle>

    <vehicle id="flow_13_phase1_W_straight.11" type="moto" depart="148.00" departLane="0" departPos="52.0012" departSpeed="2.1066" speedFactor="1.0140" arrival="263.00">
        <route edges="S_in S_out"/>
    </vehicle>

    <vehicle id="flow_3_phase1_N_right.7" type="moto" depart="240.00" departLane="0" departPos="92.0756" departSpeed="2.8113" speedFactor="0.9544" arrival="268.00">
        <route edges="N_in W_out"/>
    </vehicle>

    <vehicle id="flow_5_phase1_S_straight.14" type="car" depart="186.00" departLane="1" departPos="12.5958" departSpeed="1.9481" speedFactor="0.8047" arrival="271.00">
        <route edges="S_in N_out"/>
    </vehicle>

    <vehicle id="flow_11_phase1_E_right.7" type="moto" depart="228.00" departLane="0" departPos="24.6434" departSpeed="0.3732" speedFactor="1.1783" arrival="272.00">
        <route edges="E_in N_out"/>
    </vehicle>

    <vehicle id="flow_13_phase1_W_straight.17" type="truck" depart="228.00" departLane="0" departPos="188.1057" departSpeed="1.4933" speedFactor="0.8482" arrival="272.00">
        <route edges="S_in S_out"/>
    </vehicle>

    <vehicle id="flow_14_phase1_W_left.7" type="moto" depart="242.00" departLane="0" departPos="130.2821" departSpeed="8.2256" speedFactor="1.0438" arrival="273.00">
        <route edges="E_in W_out"/>
    </vehicle>

    <vehicle id="flow_9_phase1_E_straight.19" type="bus" depart="245.00" departLane="1" departPos="119.1451" departSpeed="8.1785" speedFactor="1.0314" arrival="279.00">
        <route edges="E_in W_out"/>
    </vehicle>

    <vehicle id="flow_9_phase1_E_straight.20" type="container" depart="258.00" departLane="0" departPos="99.5057" departSpeed="12.9704" speedFactor="0.9493" arrival="282.00">