<?xml version="1.0" encoding="UTF-8"?>

<!-- generated on 2025-12-08 21:27:02 by Eclipse SUMO sumo Version 1.18.0
<configuration xmlns:xsi="http://www.w3.org/2001/XMLSchema-instance" xsi:noNamespaceSchemaLocation="http://sumo.dlr.de/xsd/sumoConfiguration.xsd">

    <input>
        <net-file value="/workspace/nets/60p2k/net.net.xml"/>
        <route-files value="/workspace/nets/60p2k/route_temp_244_130720908769792_63793894.rou.xml"/>
    </input>

    <output>
        <summary-output value="results/summary_ep_14.xml"/>
        <tripinfo-output value="results/tripinfo_ep_14.xml"/>
        <vehroute-output value="results/vehroute_ep_14.xml"/>
    </output>

    <time>
        <begin value="0"/>
    </time>

    <report>
        <verbose value="true"/>
        <no-step-log value="true"/>
    </report>

    <traci_server>
        <remote-port value="51321"/>
    </traci_server>

    <gui_only>
        <gui-settings-file value="/workspace/nets/60p2k/gui-settings.xml"/>
        <quit-on-end value="true"/>
    </gui_only>

</configuration>
-->

<routes xmlns:xsi="http://www.w3.org/2001/XMLSchema-instance" xsi:noNamespaceSchemaLocation="http://sumo.dlr.de/xsd/routes_file.xsd">
    <vehicle id="flow_14_phase1_W_left.0" type="moto" depart="0.00" departLane="1" departPos="182.8773" departSpeed="5.6108" speedFactor="1.0101" arrival="19.00">
        <route edges="S_in S_out"/>
    </vehicle>

    <vehicle id="flow_3_phase1_N_right.0" type="car" depart="0.00" departLane="0" departPos="103.3842" departSpeed="3.7523" speedFactor="1.0907" arrival="24.00">
        <route edges="N_in W_out"/>
    </vehicle>

    <vehicle id="flow_8_phase1_S_uturn.0" type="moto" depart="0.00" departLane="0" departPos="120.1072" departSpeed="4.4837" speedFactor="1.0505" arrival="24.00">
        <route edges="S_in S_out"/>
    </vehicle>

    <vehicle id="flow_6_phase1_S_left.0" type="moto" depart="0.00" departLane="1" departPos="166.0107" departSpeed="0.7376" speedFactor="0.8806" arrival="25.00">
        <route edges="S_in W_out"/>
    </vehicle>

    <vehicle id="flow_4_phase1_N_uturn.0" type="car" depart="0.00" departLane="1" departPos="127.6015" departSpeed="0.0774" speedFactor="0.9228" arrival="27.00">
        <route edges="N_in N_out"/>
    </vehicle>

    <vehicle id="flow_2_phase1_N_left.0" type="moto" depart="0.00" departLane="1" departPos="8.2688" departSpeed="8.3291" speedFactor="1.0157" arrival="31.00">
        <route edges="N_in E_out"/>
    </vehicle>

    <vehicle id="flow_5_phase1_S_straight.0" type="moto" depart="0.00" departLane="1" departPos="107.3659" departSpeed="7.2113" speedFactor="1.1475" arrival="35.00">
        <route edges="E_in W_out"/>
    </vehicle>

    <vehicle id="flow_15_phase1_W_right.0" type="moto" depart="0.00" departLane="0" departPos="108.377" departSpeed="2.6276" speedFactor="0.8472" arrival="39.00">
        <route edges="W_in S_out"/>
    </vehicle>

    <vehicle id="flow_9_phase1_E_straight.1" type="moto" depart="13.00" departLane="0" departPos="131.129" departSpeed="9.5396" speedFactor="1.1582" arrival="39.00">
        <route edges="E_in W_out"/>
    </vehicle>

    <vehicle id="flow_9_phase1_E_straight.0" type="truck" depart="0.00" departLane="0" departPos="168.2937" departSpeed="9.8263" speedFactor="0.8990" arrival="41.00">
        <route edges="E_in W_out"/>
    </vehicle>

    <vehicle id="flow_11_phase1_E_right.0" type="bus" depart="0.00" departLane="1" departPos="144.9496" departSpeed="4.0187" speedFactor="0.9581" arrival="42.00">
        <route edges="W_in E_out"/>
    </vehicle>

    <vehicle id="flow_13_phase1_W_straight.1" type="car" depart="14.00" departLane="1" departPos="121.6549" departSpeed="2.8591" speedFactor="1.1218" arrival="42.00">
        <route edges="W_in E_out"/>
    </vehicle>

    <vehicle id="flow_5_phase1_S_straight.1" type="moto" depart="14.00" departLane="1" departPos="31.9285" departSpeed="9.2811" speedFactor="1.1853" arrival="43.00">
        <route edges="E_in W_out"/>
    </vehicle>

    <vehicle id="flow_16_phase1_W_uturn.0" type="moto" depart="0.00" departLane="0" departPos="126.6766" departSpeed="11.7148" speedFactor="1.0383" arrival="46.00">
        <route edges="W_in W_out"/>
    </vehicle>

    <vehicle id="flow_10_phase1_E_left.0" type="truck" depart="0.00" departLane="0" departPos="44.8816" departSpeed="7.6878" speedFactor="1.0161" arrival="51.00">
        <route edges="E_in S_out"/>
    </vehicle>

    <vehicle id="flow_1_phase1_N_straight.1" type="moto" depart="14.00" departLane="1" departPos="58.3562" departSpeed="11.6446" speedFactor="0.8727" arrival="51.00">
        <route edges="N_in S_out"/>
    </vehicle>

    <vehicle id="flow_1_phase1_N_straight.2" type="moto" depart="28.00" departLane="1" departPos="107.5311" departSpeed="1.1094" speedFactor="0.9279" arrival="55.00">
        <route edges="N_in S_out"/>
    </vehicle>

    <vehicle id="flow_7_phase1_S_right.0" type="container" depart="0.00" departLane="0" departPos="8.759" departSpeed="8.0654" speedFactor="0.8488" arrival="56.00">
        <route edges="S_in E_out"/>
    </vehicle>

    <vehicle id="flow_1_phase1_N_straight.0" type="bus" depart="0.00" departLane="0" departPos="8.6229" departSpeed="8.5053" speedFactor="0.8588" arrival="57.00">
        <route edges="N_in S_out"/>
    </vehicle>

    <vehicle id="flow_3_phase1_N_right.1" type="moto" depart="35.00" departLane="0" departPos="166.0021" departSpeed="1.2818" speedFactor="0.8806" arrival="59.00">
        <route edges="N_in W_out"/>
    </vehicle>

    <vehicle id="flow_9_phase1_E_straight.2" type="moto" depart="26.00" departLane="1" departPos="52.8684" departSpeed="0.3845" speedFactor="0.9938" arrival="62.00">
        <route edges="E_in W_out"/>
    </vehicle>

    <vehicle id="flow_5_phase1_S_straight.2" type="moto" depart="27.00" departLane="1" departPos="12.6982" departSpeed="12.4143" speedFactor="0.9623" arrival="67.00">
        <route edges="E_in W_out"/>
    </vehicle>

    <vehicle id="flow_13_phase1_W_straight.2" type="bus" depart="27.00" departLane="1" departPos="59.5081" departSpeed="13.3195" speedFactor="0.9657" arrival="67.00">
        <route edges="W_in E_out"/>
    </vehicle>

    <vehicle id="flow_15_phase1_W_right.1" type="moto" depart="33.00" departLane="1" departPos="97.231" departSpeed="5.8444" speedFactor="1.0788" arrival="67.00">
        <route edges="W_in S_out"/>
    </vehicle>

    <vehicle id="flow_11_phase1_E_right.1" type="moto" depart="33.00" departLane="1" departPos="80.2425" departSpeed="3.0596" speedFactor="1.0365" arrival="68.00">
        <route edges="W_in E_out"/>
    </vehicle>

    <vehicle id="flow_13_phase1_W_straight.3" type="car" depart="41.00" departLane="1" departPos="23.5668" departSpeed="10.374" speedFactor="1.0479" arrival="69.00">
        <route edges="W_in E_out"/>
    </vehicle>

    <vehicle id="flow_13_phase1_W_straight.0" type="container" depart="0.00" departLane="0" departPos="24.5296" departSpeed="3.7887" speedFactor="0.8227" arrival="72.00">
        <route edges="W_in E_out"/>
    </vehicle>

    <vehicle id="flow_2_phase1_N_left.1" type="moto" depart="33.00" departLane="0" departPos="8.8817" departSpeed="2.8196" speedFactor="1.1228" arrival="74.00">
        <route edges="N_in E_out"/>
    </vehicle>

    <vehicle id="flow_9_phase1_E_straight.3" type="bus" depart="39.00" departLane="1" departPos="108.7646" departSpeed="10.3425" speedFactor="0.8515" arrival="75.00">
        <route edges="E_in W_out"/>
    </vehicle>

    <vehicle id="flow_1_phase1_N_straight.3" type="moto" depart="41.00" departLane="0" departPos="148.0778" departSpeed="10.5891" speedFactor="1.2027" arrival="75.00">
        <route edges="N_in S_out"/>
    </vehicle>

    <vehicle id="flow_12_phase1_E_uturn.0" type="moto" depart="0.00" departLane="0" departPos="5.6544" departSpeed="13.7593" speedFactor="1.0348" arrival="79.00">
        <route edges="E_in E_out"/>
    </vehicle>

    <vehicle id="flow_1_phase1_N_straight.4" type="truck" depart="55.00" departLane="1" departPos="171.4793" departSpeed="1.9625" speedFactor="0.9194" arrival="79.00">
        <route edges="N_in S_out"/>
    </vehicle>

    <vehicle id="flow_7_phase1_S_right.1" type="container" depart="33.00" departLane="1" departPos="66.71" departSpeed="7.8717" speedFactor="0.7845" arrival="84.00">
        <route edges="S_in E_out"/>
    </vehicle>

    <vehicle id="flow_13_phase1_W_straight.5" type="moto" depart="67.00" departLane="1" departPos="177.4982" departSpeed="7.7328" speedFactor="1.1413" arrival="85.00">
        <route edges="W_in E_out"/>
    </vehicle>

    <vehicle id="flow_11_phase1_E_right.2" type="moto" depart="65.00" departLane="1" departPos="108.7048" departSpeed="9.4181" speedFactor="1.1432" arrival="89.00">
        <route edges="W_in E_out"/>
    </vehicle>

    <vehicle id="flow_14_phase1_W_left.1" type="container" depart="35.00" departLane="0" departPos="134.7579" departSpeed="11.7583" speedFactor="0.9146" arrival="90.00">
        <route edges="S_in S_out"/>
    </vehicle>

    <vehicle id="flow_16_phase1_W_uturn.1" type="moto" depart="67.00" departLane="1" departPos="159.9604" departSpeed="6.6851" speedFactor="1.0390" arrival="90.00">
        <route edges="W_in W_out"/>
    </vehicle>

    <vehicle id="flow_9_phase1_E_straight.4" type="bus" depart="52.00" departLane="0" departPos="167.2268" departSpeed="1.8689" speedFactor="0.9525" arrival="93.00">
        <route edges="E_in W_out"/>
    </vehicle>

    <vehicle id="flow_13_phase1_W_straight.4" type="bus" depart="54.00" departLane="0" departPos="185.4693" departSpeed="3.5649" speedFactor="0.8691" arrival="94.00">
        <route edges="W_in E_out"/>
    </vehicle>

    <vehicle id="flow_5_phase1_S_straight.4" type="container" depart="53.00" departLane="0" departPos="8.0759" departSpeed="6.4761" speedFactor="0.9706" arrival="99.00">
        <route edges="E_in W_out"/>
    </vehicle>

    <vehicle id="flow_2_phase1_N_left.2" type="emergency" depart="66.00" departLane="0" departPos="121.5569" departSpeed="13.0837" speedFactor="1.0989" arrival="99.00">
        <route edges="N_in E_out"/>
    </vehicle>

    <vehicle id="flow_6_phase1_S_left.1" type="moto" depart="34.00" departLane="1" departPos="79.0964" departSpeed="8.5001" speedFactor="1.0453" arrival="100.00">
        <route edges="S_in W_out"/>
    </vehicle>

    <vehicle id="flow_7_phase1_S_right.2" type="moto" depart="65.00" departLane="0" departPos="81.6907" departSpeed="9.4808" speedFactor="1.0283" arrival="100.00">
        <route edges="S_in E_out"/>
    </vehicle>

    <vehicle id="flow_3_phase1_N_right.2" type="moto" depart="69.00" departLane="1" departPos="137.1078" departSpeed="4.9645" speedFactor="1.1043" arrival="101.00">
        <route edges="N_in W_out"/>
    </vehicle>

    <vehicle id="flow_10_phase1_E_left.1" type="truck" depart="34.00" departLane="0" departPos="4.5211" departSpeed="10.4074" speedFactor="0.7665" arrival="103.00">
        <route edges="E_in S_out"/>
    </vehicle>

    <vehicle id="flow_4_phase1_N_uturn.1" type="moto" depart="67.00" departLane="0" departPos="64.2471" departSpeed="6.1278" speedFactor="0.9374" arrival="105.00">
        <route edges="N_in N_out"/>
    </vehicle>

    <vehicle id="flow_1_phase1_N_straight.5" type="moto" depart="68.00" departLane="1" departPos="29.0743" departSpeed="2.6017" speedFactor="0.9020" arrival="106.00">
        <route edges="N_in S_out"/>
    </vehicle>

    <vehicle id="flow_5_phase1_S_straight.5" type="moto" depart="67.00" departLane="1" departPos="174.172" departSpeed="2.9946" speedFactor="1.0265" arrival="114.00">
        <route edges="E_in W_out"/>
    </vehicle>

    <vehicle id="flow_5_phase1_S_straight.3" type="moto" depart="40.00" departLane="1" departPos="19.2493" departSpeed="4.4335" speedFactor="1.0764" arrival="115.00">
        <route edges="E_in W_out"/>
    </vehicle>

    <vehicle id="flow_15_phase1_W_right.2" type="moto" depart="66.00" departLane="1" departPos="65.5698" departSpeed="2.068" speedFactor="0.8882" arrival="115.00">
        <route edges="W_in S_out"/>
    </vehicle>

    <vehicle id="flow_6_phase1_S_left.2" type="truck" depart="67.00" departLane="1" departPos="172.3747" departSpeed="0.0077" speedFactor="0.8923" arrival="115.00">
        <route edges="S_in W_out"/>
    </vehicle>

    <vehicle id="flow_13_phase1_W_straight.6" type="car" depart="81.00" departLane="1" departPos="37.0366" departSpeed="3.0894" speedFactor="0.9759" arrival="116.00">
        <route edges="W_in E_out"/>
    </vehicle>

    <vehicle id="flow_9_phase1_E_straight.5" type="moto" depart="65.00" departLane="0" departPos="71.9448" departSpeed="3.8404" speedFactor="0.9964" arrival="117.00">
        <route edges="E_in W_out"/>
    </vehicle>

    <vehicle id="flow_9_phase1_E_straight.6" type="moto" depart="78.00" departLane="0" departPos="24.5526" departSpeed="8.2195" speedFactor="1.0203" arrival="118.00">
        <route edges="E_in W_out"/>
    </vehicle>

    <vehicle id="flow_5_phase1_S_straight.6" type="moto" depart="80.00" departLane="0" departPos="18.5245" departSpeed="1.7505" speedFactor="1.0983" arrival="118.00">
        <route edges="E_in W_out"/>
    </vehicle>

    <vehicle id="flow_15_phase1_W_right.3" type="moto" depart="99.00" departLane="1" departPos="140.1205" departSpeed="12.6855" speedFactor="1.1705" arrival="118.00">
        <route edges="W_in S_out"/>
    </vehicle>

    <vehicle id="flow_13_phase1_W_straight.7" type="moto" depart="94.00" departLane="1" departPos="150.3544" departSpeed="6.3251" speedFactor="0.8003" arrival="120.00">
        <route edges="W_in E_out"/>
    </vehicle>

    <vehicle id="flow_9_phase1_E_straight.7" type="moto" depart="91.00" departLane="0" departPos="36.1232" departSpeed="6.53" speedFactor="1.0085" arrival="121.00">
        <route edges="E_in W_out"/>
    </vehicle>

    <vehicle id="flow_12_phase1_E_uturn.1" type="moto" depart="66.00" departLane="0" departPos="91.5182" departSpeed="11.7366" speedFactor="0.9517" arrival="124.00">
        <route edges="E_in E_out"/>
    </vehicle>

    <vehicle id="flow_7_phase1_S_right.3" type="moto" depart="98.00" departLane="0" departPos="140.508" departSpeed="11.1296" speedFactor="1.0682" arrival="126.00">
        <route edges="S_in E_out"/>
    </vehicle>

    <vehicle id="flow_1_phase1_N_straight.7" type="moto" depart="95.00" departLane="0" departPos="107.9927" departSpeed="1.2493" speedFactor="1.0626" arrival="127.00">
        <route edges="N_in S_out"/>
    </vehicle>

    <vehicle id="flow_1_phase1_N_straight.6" type="car" depart="82.00" departLane="1" departPos="47.4954" departSpeed="4.3691" speedFactor="0.9797" arrival="128.00">
        <route edges="N_in S_out"/>
    </vehicle>

    <vehicle id="flow_3_phase1_N_right.3" type="moto" depart="103.00" departLane="1" departPos="103.4641" departSpeed="3.0795" speedFactor="0.9618" arrival="130.00">
        <route edges="N_in W_out"/>
    </vehicle>

    <vehicle id="flow_14_phase1_W_left.2" type="car" depart="69.00" departLane="1" departPos="152.0111" departSpeed="4.5723" speedFactor="0.8975" arrival="134.00">
        <route edges="S_in S_out"/>
    </vehicle>

    <vehicle id="flow_2_phase1_N_left.3" type="moto" depart="99.00" departLane="1" departPos="16.1283" departSpeed="7.2618" speedFactor="0.8878" arrival="135.00">
        <route edges="N_in E_out"/>
    </vehicle>

    <vehicle id="flow_13_phase1_W_straight.8" type="moto" depart="108.00" departLane="1" departPos="9.2851" departSpeed="8.3299" speedFactor="1.0413" arrival="137.00">
        <route edges="W_in E_out"/>
    </vehicle>

    <vehicle id="flow_8_phase1_S_uturn.1" type="truck" depart="66.00" departLane="0" departPos="2.773" departSpeed="12.3393" speedFactor="0.9396" arrival="139.00">
        <route edges="S_in S_out"/>
    </vehicle>

    <vehicle id="flow_11_phase1_E_right.3" type="moto" depart="98.00" departLane="1" departPos="86.4019" departSpeed="1.3828" speedFactor="0.8330" arrival="143.00">
        <route edges="W_in E_out"/>
    </vehicle>

    <vehicle id="flow_5_phase1_S_straight.8" type="emergency" depart="106.00" departLane="1" departPos="2.521" departSpeed="13.101" speedFactor="1.1380" arrival="143.00">
        <route edges="E_in W_out"/>
    </vehicle>

    <vehicle id="flow_5_phase1_S_straight.7" type="bus" depart="93.00" departLane="1" departPos="41.8299" departSpeed="11.8205" speedFactor="0.9040" arrival="145.00">
        <route edges="E_in W_out"/>
    </vehicle>

    <vehicle id="flow_13_phase1_W_straight.9" type="moto" depart="121.00" departLane="1" departPos="133.5146" departSpeed="5.5548" speedFactor="0.8391" arrival="146.00">
        <route edges="W_in E_out"/>
    </vehicle>

    <vehicle id="flow_10_phase1_E_left.2" type="moto" depart="67.00" departLane="0" departPos="74.602" departSpeed="1.6955" speedFactor="1.0668" arrival="147.00">
        <route edges="E_in S_out"/>
    </vehicle>

    <vehicle id="flow_9_phase1_E_straight.8" type="moto" depart="104.00" departLane="1" departPos="65.7387" departSpeed="11.804" speedFactor="0.9385" arrival="150.00">
        <route edges="E_in W_out"/>
    </vehicle>

    <vehicle id="flow_1_phase1_N_straight.9" type="truck" depart="122.00" departLane="0" departPos="72.9854" departSpeed="6.4384" speedFactor="0.9670" arrival="153.00">
        <route edges="N_in S_out"/>
    </vehicle>

    <vehicle id="flow_1_phase1_N_straight.8" type="moto" depart="109.00" departLane="0" departPos="38.2894" departSpeed="0.4261" speedFactor="0.9730" arrival="154.00">
        <route edges="N_in S_out"/>
    </vehicle>

    <vehicle id="flow_1_phase1_N_straight.10" type="bus" depart="136.00" departLane="1" departPos="181.5712" departSpeed="0.2355" speedFactor="1.0325" arrival="159.00">
        <route edges="N_in S_out"/>
    </vehicle>

    <vehicle id="flow_7_phase1_S_right.4" type="moto" depart="130.00" departLane="1" departPos="60.4969" departSpeed="2.8955" speedFactor="0.9645" arrival="160.00">
        <route edges="S_in E_out"/>
    </vehicle>

    <vehicle id="flow_6_phase1_S_left.3" type="car" depart="101.00" departLane="1" departPos="74.7856" departSpeed="2.9068" speedFactor="1.0972" arrival="162.00">
        <route edges="S_in W_out"/>
    </vehicle>

    <vehicle id="flow_4_phase1_N_uturn.2" type="car" depart="133.00" departLane="1" departPos="75.2144" departSpeed="6.7222" speedFactor="1.0323" arrival="162.00">
        <route edges="N_in N_out"/>
    </vehicle>

    <vehicle id="flow_13_phase1_W_straight.10" type="moto" depart="134.00" departLane="1" departPos="149.7816" departSpeed="12.7594" speedFactor="1.1421" arrival="164.00">
        <route edges="W_in E_out"/>
    </vehicle>

    <vehicle id="flow_5_phase1_S_straight.9" type="moto" depart="120.00" departLane="0" departPos="110.6444" departSpeed="8.7146" speedFactor="1.2976" arrival="165.00">
        <route edges="E_in W_out"/>
    </vehicle>

    <vehicle id="flow_15_phase1_W_right.4" type="bus" depart="132.00" departLane="0" departPos="5.0473" departSpeed="10.0204" speedFactor="0.9032" arrival="170.00">
        <route edges="W_in S_out"/>
    </vehicle>

    <vehicle id="flow_9_phase1_E_straight.9" type="truck" depart="116.00" departLane="1" departPos="7.4986" departSpeed="3.9655" speedFactor="1.0019" arrival="171.00">
        <route edges="E_in W_out"/>
    </vehicle>

    <vehicle id="flow_9_phase1_E_straight.10" type="moto" depart="129.00" departLane="1" departPos="55.6396" departSpeed="13.7679" speedFactor="1.1157" arrival="171.00">
        <route edges="E_in W_out"/>
    </vehicle>

    <vehicle id="flow_13_phase1_W_straight.11" type="moto" depart="148.00" departLane="0" departPos="169.1917" departSpeed="0.1575" speedFactor="1.0140" arrival="171.00">
        <route edges="W_in E_out"/>
    </vehicle>

    <vehicle id="flow_5_phase1_S_straight.10" type="moto" depart="133.00" departLane="1" departPos="45.6162" departSpeed="7.5663" speedFactor="1.0281" arrival="173.00">
        <route edges="E_in W_out"/>
    </vehicle>

    <vehicle id="flow_11_phase1_E_right.4" type="container" depart="130.00" departLane="1" departPos="188.5725" departSpeed="1.0265" speedFactor="1.0240" arrival="175.00">
        <route edges="W_in E_out"/>
    </vehicle>

    <vehicle id="flow_10_phase1_E_left.3" type="truck" depart="101.00" departLane="1" departPos="2.2093" departSpeed="7.8218" speedFactor="1.0651" arrival="178.00">
        <route edges="E_in S_out"/>
    </vehicle>

    <vehicle id="flow_2_phase1_N_left.4" type="moto" depart="131.00" departLane="1" departPos="9.1985" departSpeed="10.4879" speedFactor="1.1571" arrival="178.00">
        <route edges="N_in E_out"/>
    </vehicle>

    <vehicle id="flow_16_phase1_W_uturn.2" type="car" depart="133.00" departLane="0" departPos="77.131" departSpeed="6.2282" speedFactor="0.8850" arrival="178.00">
        <route edges="W_in W_out"/>
    </vehicle>

    <vehicle id="flow_3_phase1_N_right.4" type="moto" depart="137.00" departLane="0" departPos="14.8665" departSpeed="4.6424" speedFactor="1.0387" arrival="178.00">
        <route edges="N_in W_out"/>
    </vehicle>

    <vehicle id="flow_1_phase1_N_straight.12" type="truck" depart="163.00" departLane="0" departPos="170.7684" departSpeed="5.6513" speedFactor="0.9615" arrival="183.00">
        <route edges="N_in S_out"/>
    </vehicle>

    <vehicle id="flow_1_phase1_N_straight.11" type="truck" depart="149.00" departLane="1" departPos="170.5857" departSpeed="7.359" speedFactor="0.9137" arrival="186.00">
        <route edges="N_in S_out"/>
    </vehicle>

    <vehicle id="flow_14_phase1_W_left.3" type="moto" depart="104.00" departLane="1" departPos="57.3268" departSpeed="6.7551" speedFactor="1.0873" arrival="187.00">
        <route edges="S_in S_out"/>
    </vehicle>

    <vehicle id="flow_6_phase1_S_left.4" type="moto" depart="134.00" departLane="0" departPos="180.9021" departSpeed="6.5985" speedFactor="1.0387" arrival="187.00">
        <route edges="S_in W_out"/>
    </vehicle>

    <vehicle id="flow_13_phase1_W_straight.12" type="moto" depart="161.00" departLane="1" departPos="38.4375" departSpeed="8.0972" speedFactor="1.1365" arrival="189.00">
        <route edges="W_in E_out"/>
    </vehicle>

    <vehicle id="flow_11_phase1_E_right.5" type="moto" depart="163.00" departLane="0" departPos="68.0447" departSpeed="8.3284" speedFactor="1.2552" arrival="191.00">
        <route edges="W_in E_out"/>
    </vehicle>

    <vehicle id="flow_15_phase1_W_right.5" type="car" depart="165.00" departLane="1" departPos="177.3408" departSpeed="3.0556" speedFactor="0.9653" arrival="192.00">
        <route edges="W_in S_out"/>
    </vehicle>

    <vehicle id="flow_9_phase1_E_straight.12" type="moto" depart="155.00" departLane="0" departPos="128.7404" departSpeed="3.6495" speedFactor="1.0047" arrival="193.00">
        <route edges="E_in W_out"/>
    </vehicle>

    <vehicle id="flow_13_phase1_W_straight.13" type="moto" depart="174.00" departLane="0" departPos="184.144" departSpeed="0.5565" speedFactor="0.8917" arrival="196.00">
        <route edges="W_in E_out"/>
    </vehicle>

    <vehicle id="flow_5_phase1_S_straight.11" type="bus" depart="146.00" departLane="1" departPos="102.4537" departSpeed="0.5862" speedFactor="0.9784" arrival="197.00">
        <route edges="E_in W_out"/>
    </vehicle>

    <vehicle id="flow_5_phase1_S_straight.12" type="moto" depart="159.00" departLane="0" departPos="28.3376" departSpeed="12.1324" speedFactor="1.0699" arrival="198.00">
        <route edges="E_in W_out"/>
    </vehicle>

    <vehicle id="flow_12_phase1_E_uturn.2" type="bus" depart="132.00" departLane="1" departPos="146.8151" departSpeed="9.7722" speedFactor="0.9315" arrival="201.00">
        <route edges="E_in E_out"/>
    </vehicle>

    <vehicle id="flow_9_phase1_E_straight.13" type="moto" depart="168.00" departLane="0" departPos="98.0837" departSpeed="8.1991" speedFactor="0.9282" arrival="201.00">
        <route edges="E_in W_out"/>
    </vehicle>

    <vehicle id="flow_3_phase1_N_right.5" type="moto" depart="171.00" departLane="0" departPos="27.7577" departSpeed="10.6422" speedFactor="0.9059" arrival="206.00">
        <route edges="N_in W_out"/>
    </vehicle>

    <vehicle id="flow_2_phase1_N_left.5" type="car" depart="164.00" departLane="1" departPos="81.4827" departSpeed="3.3074" speedFactor="0.8868" arrival="207.00">
        <route edges="N_in E_out"/>
    </vehicle>

    <vehicle id="flow_1_phase1_N_straight.13" type="truck" depart="176.00" departLane="1" departPos="127.7831" departSpeed="8.4759" speedFactor="0.9465" arrival="210.00">
        <route edges="N_in S_out"/>
    </vehicle>

    <vehicle id="flow_13_phase1_W_straight.14" type="moto" depart="188.00" departLane="0" departPos="99.1978" departSpeed="8.3041" speedFactor="1.1523" arrival="216.00">
        <route edges="W_in E_out"/>
    </vehicle>

    <vehicle id="flow_9_phase1_E_straight.11" type="moto" depart="142.00" departLane="1" departPos="11.9624" departSpeed="0.8255" speedFactor="1.0448" arrival="218.00">
        <route edges="E_in W_out"/>
    </vehicle>

    <vehicle id="flow_14_phase1_W_left.4" type="bus" depart="138.00" departLane="1" departPos="162.1669" departSpeed="3.975" speedFactor="0.8196" arrival="219.00">
        <route edges="S_in S_out"/>
    </vehicle>

    <vehicle id="flow_5_phase1_S_straight.13" type="moto" depart="172.00" departLane="1" departPos="22.618" departSpeed="0.229" speedFactor="1.2148" arrival="219.00">
        <route edges="E_in W_out"/>
    </vehicle>

    <vehicle id="flow_15_phase1_W_right.6" type="car" depart="198.00" departLane="0" departPos="135.4921" departSpeed="5.1656" speedFactor="0.9559" arrival="222.00">
        <route edges="W_in S_out"/>
    </vehicle>

    <vehicle id="flow_13_phase1_W_straight.15" type="car" depart="201.00" departLane="0" departPos="153.1849" departSpeed="3.3042" speedFactor="1.0262" arrival="223.00">
        <route edges="W_in E_out"/>
    </vehicle>

    <vehicle id="flow_9_phase1_E_straight.14" type="moto" depart="181.00" departLane="0" departPos="39.6761" departSpeed="6.2776" speedFactor="0.8543" arrival="224.00">
        <route edges="E_in W_out"/>
    </vehicle>

    <vehicle id="flow_10_phase1_E_left.4" type="moto" depart="134.00" departLane="0" departPos="62.1003" departSpeed="7.9596" speedFactor="1.0039" arrival="228.00">
        <route edges="E_in S_out"/>
    </vehicle>

    <vehicle id="flow_10_phase1_E_left.5" type="moto" depart="168.00" departLane="0" departPos="138.898" departSpeed="0.0778" speedFactor="1.0856" arrival="229.00">
        <route edges="E_in S_out"/>
    </vehicle>

    <vehicle id="flow_16_phase1_W_uturn.3" type="bus" depart="199.00" departLane="1" departPos="147.9348" departSpeed="1.0704" speedFactor="0.9363" arrival="231.00">
        <route edges="W_in W_out"/>
    </vehicle>

    <vehicle id="flow_1_phase1_N_straight.14" type="car" depart="190.00" departLane="1" departPos="80.6527" departSpeed="2.028" speedFactor="0.9718" arrival="232.00">
        <route edges="N_in S_out"/>
    </vehicle>

    <vehicle id="flow_4_phase1_N_uturn.3" type="bus" depart="199.00" departLane="1" departPos="126.6391" departSpeed="12.463" speedFactor="0.9700" arrival="233.00">
        <route edges="N_in N_out"/>
    </vehicle>

    <vehicle id="flow_1_phase1_N_straight.15" type="car" depart="203.00" departLane="0" departPos="75.6038" departSpeed="6.7479" speedFactor="0.9311" arrival="234.00">
        <route edges="N_in S_out"/>
    </vehicle>

    <vehicle id="flow_8_phase1_S_uturn.2" type="moto" depart="132.00" departLane="0" departPos="2.1035" departSpeed="10.171" speedFactor="0.9897" arrival="235.00">
        <route edges="S_in S_out"/>
    </vehicle>

    <vehicle id="flow_2_phase1_N_left.6" type="moto" depart="197.00" departLane="1" departPos="20.6867" departSpeed="9.4837" speedFactor="0.8416" arrival="238.00">
        <route edges="N_in E_out"/>
    </vehicle>

    <vehicle id="flow_3_phase1_N_right.6" type="truck" depart="206.00" departLane="0" departPos="64.2415" departSpeed="10.9091" speedFactor="0.9035" arrival="238.00">
        <route edges="N_in W_out"/>
    </vehicle>

    <vehicle id="flow_14_phase1_W_left.5" type="bus" depart="173.00" departLane="0" departPos="7.5649" departSpeed="10.7831" speedFactor="0.9554" arrival="239.00">
        <route edges="S_in S_out"/>
    </vehicle>

    <vehicle id="flow_11_phase1_E_right.6" type="car" depart="195.00" departLane="1" departPos="12.5958" departSpeed="2.3817" speedFactor="0.9838" arrival="244.00">
        <route edges="W_in E_out"/>
    </vehicle>

    <vehicle id="flow_13_phase1_W_straight.16" type="truck" depart="215.00" departLane="0" departPos="67.2783" departSpeed="8.246" speedFactor="0.9269" arrival="244.00">
        <route edges="W_in E_out"/>
    </vehicle>

    <vehicle id="flow_5_phase1_S_straight.14" type="car" depart="186.00" departLane="1" departPos="80.4314" departSpeed="9.0929" speedFactor="0.8047" arrival="247.00">
        <route edges="E_in W_out"/>
    </vehicle>

    <vehicle id="flow_13_phase1_W_straight.17" type="truck" depart="228.00" departLane="1" departPos="154.8347" departSpeed="10.2372" speedFactor="0.8482" arrival="250.00">
        <route edges="W_in E_out"/>
    </vehicle>

    <vehicle id="flow_5_phase1_S_straight.15" type="container" depart="199.00" departLane="1" departPos="106.5316" departSpeed="12.3417" speedFactor="0.9628" arrival="251.00">
        <route edges="E_in W_out"/>
    </vehicle>

    <vehicle id="flow_12_phase1_E_uturn.3" type="moto" depart="198.00" departLane="0" departPos="164.3932" departSpeed="9.6647" speedFactor="1.0747" arrival="252.00">
        <route edges="E_in E_out"/>
    </vehicle>

    <vehicle id="flow_9_phase1_E_straight.15" type="bus" depart="194.00" departLane="0" departPos="15.6422" departSpeed="12.1553" speedFactor="0.8815" arrival="256.00">
        <route edges="E_in W_out"/>
    </vehicle>

    <vehicle id="flow_1_phase1_N_straight.16" type="moto" depart="217.00" departLane="0" departPos="109.4469" departSpeed="2.0719" speedFactor="1.0821" arrival="257.00">