<?xml version="1.0" encoding="UTF-8"?>

<!-- generated on 2025-12-08 21:26:11 by Eclipse SUMO sumo Version 1.18.0
<configuration xmlns:xsi="http://www.w3.org/2001/XMLSchema-instance" xsi:noNamespaceSchemaLocation="http://sumo.dlr.de/xsd/sumoConfiguration.xsd">

    <input>
        <net-file value="/workspace/nets/60p2k/net.net.xml"/>
        <route-files value="/workspace/nets/60p2k/route_temp_244_130720908769792_63793894.rou.xml"/>
    </input>

    <output>
        <summary-output value="results/summary_ep_12.xml"/>
        <tripinfo-output value="results/tripinfo_ep_12.xml"/>
        <vehroute-output value="results/vehroute_ep_12.xml"/>
    </output>

    <time>
        <begin value="0"/>
    </time>

    <report>
        <verbose value="true"/>
        <no-step-log value="true"/>
    </report>

    <traci_server>
        <remote-port value="39753"/>
    </traci_server>

    <gui_only>
        <gui-settings-file value="/workspace/nets/60p2k/gui-settings.xml"/>
        <quit-on-end value="true"/>
    </gui_only>

</configuration>
-->

<routes xmlns:xsi="http://www.w3.org/2001/XMLSchema-instance" xsi:noNamespaceSchemaLocation="http://sumo.dlr.de/xsd/routes_file.xsd">
    <vehicle id="flow_8_phase1_S_uturn.0" type="moto" depart="0.00" departLane="0" departPos="120.1072" departSpeed="4.4837" speedFactor="1.0505" arrival="24.00">
        <route edges="S_in S_out"/>
    </vehicle>

    <vehicle id="flow_5_phase1_S_straight.0" type="moto" depart="0.00" departLane="1" departPos="107.3659" departSpeed="7.2113" speedFactor="1.1475" arrival="25.00">
        <route edges="S_in N_out"/>
    </vehicle>

    <vehicle id="flow_4_phase1_N_uturn.0" type="car" depart="0.00" departLane="1" departPos="127.6015" departSpeed="0.0774" speedFactor="0.9228" arrival="31.00">
        <route edges="N_in N_out"/>
    </vehicle>

    <vehicle id="flow_16_phase1_W_uturn.0" type="moto" depart="0.00" departLane="0" departPos="126.6766" departSpeed="11.7148" speedFactor="1.0383" arrival="37.00">
        <route edges="W_in W_out"/>
    </vehicle>

    <vehicle id="flow_3_phase1_N_right.0" type="car" depart="0.00" departLane="0" departPos="103.3842" departSpeed="3.7523" speedFactor="1.0907" arrival="38.00">
        <route edges="E_in N_out"/>
    </vehicle>

    <vehicle id="flow_6_phase1_S_left.0" type="moto" depart="0.00" departLane="1" departPos="166.0107" departSpeed="0.7376" speedFactor="0.8806" arrival="38.00">
        <route edges="W_in E_out"/>
    </vehicle>

    <vehicle id="flow_12_phase1_E_uturn.0" type="moto" depart="0.00" departLane="0" departPos="129.8894" departSpeed="13.7593" speedFactor="1.0348" arrival="38.00">
        <route edges="E_in E_out"/>
    </vehicle>

    <vehicle id="flow_11_phase1_E_right.0" type="bus" depart="0.00" departLane="1" departPos="144.9496" departSpeed="4.0187" speedFactor="0.9581" arrival="40.00">
        <route edges="W_in S_out"/>
    </vehicle>

    <vehicle id="flow_9_phase1_E_straight.0" type="truck" depart="0.00" departLane="0" departPos="168.2937" departSpeed="9.8263" speedFactor="0.8990" arrival="41.00">
        <route edges="E_in W_out"/>
    </vehicle>

    <vehicle id="flow_9_phase1_E_straight.1" type="moto" depart="13.00" departLane="0" departPos="131.129" departSpeed="9.5396" speedFactor="1.1582" arrival="43.00">
        <route edges="E_in W_out"/>
    </vehicle>

    <vehicle id="flow_14_phase1_W_left.0" type="moto" depart="0.00" departLane="1" departPos="50.0682" departSpeed="13.5426" speedFactor="1.0101" arrival="44.00">
        <route edges="W_in N_out"/>
    </vehicle>

    <vehicle id="flow_15_phase1_W_right.0" type="moto" depart="0.00" departLane="1" departPos="108.377" departSpeed="1.9778" speedFactor="0.8472" arrival="44.00">
        <route edges="W_in S_out"/>
    </vehicle>

    <vehicle id="flow_2_phase1_N_left.0" type="moto" depart="0.00" departLane="1" departPos="8.2688" departSpeed="8.3291" speedFactor="1.0157" arrival="46.00">
        <route edges="W_in E_out"/>
    </vehicle>

    <vehicle id="flow_13_phase1_W_straight.0" type="container" depart="0.00" departLane="0" departPos="23.7725" departSpeed="1.4795" speedFactor="0.8227" arrival="48.00">
        <route edges="W_in E_out"/>
    </vehicle>

    <vehicle id="flow_10_phase1_E_left.0" type="truck" depart="0.00" departLane="0" departPos="44.8816" departSpeed="7.6878" speedFactor="1.0161" arrival="53.00">
        <route edges="E_in S_out"/>
    </vehicle>

    <vehicle id="flow_5_phase1_S_straight.1" type="moto" depart="14.00" departLane="1" departPos="31.9285" departSpeed="9.2811" speedFactor="1.1853" arrival="53.00">
        <route edges="S_in N_out"/>
    </vehicle>

    <vehicle id="flow_7_phase1_S_right.0" type="container" depart="0.00" departLane="0" departPos="8.759" departSpeed="8.0654" speedFactor="0.8488" arrival="56.00">
        <route edges="S_in E_out"/>
    </vehicle>

    <vehicle id="flow_5_phase1_S_straight.2" type="moto" depart="27.00" departLane="1" departPos="12.6982" departSpeed="12.4143" speedFactor="0.9623" arrival="58.00">
        <route edges="S_in N_out"/>
    </vehicle>

    <vehicle id="flow_13_phase1_W_straight.1" type="car" depart="14.00" departLane="1" departPos="121.6549" departSpeed="2.8591" speedFactor="1.1218" arrival="60.00">
        <route edges="W_in E_out"/>
    </vehicle>

    <vehicle id="flow_15_phase1_W_right.1" type="moto" depart="33.00" departLane="1" departPos="97.231" departSpeed="5.8444" speedFactor="1.0788" arrival="60.00">
        <route edges="W_in S_out"/>
    </vehicle>

    <vehicle id="flow_9_phase1_E_straight.2" type="moto" depart="26.00" departLane="1" departPos="52.8684" departSpeed="0.3845" speedFactor="0.9938" arrival="63.00">
        <route edges="E_in W_out"/>
    </vehicle>

    <vehicle id="flow_11_phase1_E_right.1" type="moto" depart="33.00" departLane="1" departPos="80.2425" departSpeed="3.0596" speedFactor="1.0365" arrival="63.00">
        <route edges="W_in S_out"/>
    </vehicle>

    <vehicle id="flow_3_phase1_N_right.1" type="moto" depart="35.00" departLane="0" departPos="166.0021" departSpeed="1.2818" speedFactor="0.8806" arrival="63.00">
        <route edges="E_in N_out"/>
    </vehicle>

    <vehicle id="flow_13_phase1_W_straight.3" type="car" depart="41.00" departLane="0" departPos="148.0778" departSpeed="9.6399" speedFactor="1.0479" arrival="64.00">
        <route edges="W_in E_out"/>
    </vehicle>

    <vehicle id="flow_2_phase1_N_left.1" type="moto" depart="33.00" departLane="0" departPos="8.8817" departSpeed="2.8196" speedFactor="1.1228" arrival="65.00">
        <route edges="W_in E_out"/>
    </vehicle>

    <vehicle id="flow_13_phase1_W_straight.2" type="bus" depart="27.00" departLane="1" departPos="59.5081" departSpeed="13.3195" speedFactor="0.9657" arrival="68.00">
        <route edges="W_in E_out"/>
    </vehicle>

    <vehicle id="flow_6_phase1_S_left.1" type="moto" depart="34.00" departLane="1" departPos="79.0964" departSpeed="4.0983" speedFactor="1.0453" arrival="69.00">
        <route edges="W_in E_out"/>
    </vehicle>

    <vehicle id="flow_9_phase1_E_straight.3" type="bus" depart="39.00" departLane="1" departPos="108.7646" departSpeed="5.3945" speedFactor="0.8515" arrival="73.00">
        <route edges="E_in W_out"/>
    </vehicle>

    <vehicle id="flow_5_phase1_S_straight.3" type="moto" depart="40.00" departLane="1" departPos="77.9408" departSpeed="4.4335" speedFactor="1.0764" arrival="74.00">
        <route edges="S_in N_out"/>
    </vehicle>

    <vehicle id="flow_1_phase1_N_straight.0" type="bus" depart="0.00" departLane="0" departPos="8.6229" departSpeed="8.5053" speedFactor="0.8588" arrival="78.00">
        <route edges="E_in E_out"/>
    </vehicle>

    <vehicle id="flow_5_phase1_S_straight.4" type="container" depart="53.00" departLane="0" departPos="167.2268" departSpeed="1.9044" speedFactor="0.9706" arrival="82.00">
        <route edges="S_in N_out"/>
    </vehicle>

    <vehicle id="flow_7_phase1_S_right.1" type="container" depart="33.00" departLane="1" departPos="66.71" departSpeed="7.8717" speedFactor="0.7845" arrival="85.00">
        <route edges="S_in E_out"/>
    </vehicle>

    <vehicle id="flow_9_phase1_E_straight.4" type="bus" depart="52.00" departLane="1" departPos="23.5668" departSpeed="9.4296" speedFactor="0.9525" arrival="89.00">
        <route edges="E_in W_out"/>
    </vehicle>

    <vehicle id="flow_13_phase1_W_straight.4" type="bus" depart="54.00" departLane="0" departPos="8.0759" departSpeed="5.7989" speedFactor="0.8691" arrival="90.00">
        <route edges="W_in E_out"/>
    </vehicle>

    <vehicle id="flow_9_phase1_E_straight.5" type="moto" depart="65.00" departLane="0" departPos="81.6907" departSpeed="9.1867" speedFactor="0.9964" arrival="91.00">
        <route edges="E_in W_out"/>
    </vehicle>

    <vehicle id="flow_15_phase1_W_right.2" type="moto" depart="66.00" departLane="0" departPos="91.5182" departSpeed="10.9535" speedFactor="0.8882" arrival="94.00">
        <route edges="W_in S_out"/>
    </vehicle>

    <vehicle id="flow_11_phase1_E_right.2" type="moto" depart="65.00" departLane="0" departPos="71.9448" departSpeed="4.4062" speedFactor="1.1432" arrival="95.00">
        <route edges="W_in S_out"/>
    </vehicle>

    <vehicle id="flow_13_phase1_W_straight.5" type="moto" depart="67.00" departLane="1" departPos="155.3486" departSpeed="10.5831" speedFactor="1.1413" arrival="95.00">
        <route edges="W_in E_out"/>
    </vehicle>

    <vehicle id="flow_7_phase1_S_right.2" type="moto" depart="65.00" departLane="1" departPos="171.4793" departSpeed="2.1949" speedFactor="1.0283" arrival="100.00">
        <route edges="S_in E_out"/>
    </vehicle>

    <vehicle id="flow_1_phase1_N_straight.4" type="truck" depart="55.00" departLane="0" departPos="185.4693" departSpeed="3.5649" speedFactor="0.9194" arrival="101.00">
        <route edges="E_in E_out"/>
    </vehicle>

    <vehicle id="flow_5_phase1_S_straight.5" type="moto" depart="67.00" departLane="0" departPos="64.2471" departSpeed="6.7102" speedFactor="1.0265" arrival="102.00">
        <route edges="S_in N_out"/>
    </vehicle>

    <vehicle id="flow_14_phase1_W_left.1" type="container" depart="35.00" departLane="0" departPos="80.5996" departSpeed="5.5217" speedFactor="0.9146" arrival="103.00">
        <route edges="W_in N_out"/>
    </vehicle>

    <vehicle id="flow_8_phase1_S_uturn.1" type="truck" depart="66.00" departLane="0" departPos="121.5569" departSpeed="11.1871" speedFactor="0.9396" arrival="104.00">
        <route edges="S_in S_out"/>
    </vehicle>

    <vehicle id="flow_5_phase1_S_straight.6" type="moto" depart="80.00" departLane="0" departPos="149.6933" departSpeed="1.9769" speedFactor="1.0983" arrival="104.00">
        <route edges="S_in N_out"/>
    </vehicle>

    <vehicle id="flow_4_phase1_N_uturn.1" type="moto" depart="67.00" departLane="1" departPos="65.5698" departSpeed="2.1826" speedFactor="0.9374" arrival="106.00">
        <route edges="N_in N_out"/>
    </vehicle>

    <vehicle id="flow_2_phase1_N_left.2" type="emergency" depart="66.00" departLane="1" departPos="108.7048" departSpeed="9.0531" speedFactor="1.0989" arrival="112.00">
        <route edges="W_in E_out"/>
    </vehicle>

    <vehicle id="flow_3_phase1_N_right.2" type="moto" depart="69.00" departLane="1" departPos="29.0743" departSpeed="5.1088" speedFactor="1.1043" arrival="112.00">
        <route edges="E_in N_out"/>
    </vehicle>

    <vehicle id="flow_16_phase1_W_uturn.1" type="moto" depart="67.00" departLane="0" departPos="92.4194" departSpeed="10.3861" speedFactor="1.0390" arrival="116.00">
        <route edges="W_in W_out"/>
    </vehicle>

    <vehicle id="flow_9_phase1_E_straight.6" type="moto" depart="78.00" departLane="1" departPos="29.8839" departSpeed="11.3705" speedFactor="1.0203" arrival="116.00">
        <route edges="E_in W_out"/>
    </vehicle>

    <vehicle id="flow_15_phase1_W_right.3" type="moto" depart="99.00" departLane="0" departPos="150.3232" departSpeed="6.8844" speedFactor="1.1705" arrival="118.00">
        <route edges="W_in S_out"/>
    </vehicle>

    <vehicle id="flow_6_phase1_S_left.2" type="truck" depart="67.00" departLane="1" departPos="2.2119" departSpeed="8.1689" speedFactor="0.8923" arrival="119.00">
        <route edges="W_in E_out"/>
    </vehicle>

    <vehicle id="flow_9_phase1_E_straight.7" type="moto" depart="91.00" departLane="1" departPos="88.3207" departSpeed="11.9262" speedFactor="1.0085" arrival="119.00">
        <route edges="E_in W_out"/>
    </vehicle>

    <vehicle id="flow_13_phase1_W_straight.6" type="car" depart="81.00" departLane="0" departPos="42.8454" departSpeed="1.3253" speedFactor="0.9759" arrival="120.00">
        <route edges="W_in E_out"/>
    </vehicle>

    <vehicle id="flow_9_phase1_E_straight.8" type="moto" depart="104.00" departLane="0" departPos="178.6166" departSpeed="7.1187" speedFactor="0.9385" arrival="123.00">
        <route edges="E_in W_out"/>
    </vehicle>

    <vehicle id="flow_1_phase1_N_straight.1" type="moto" depart="14.00" departLane="1" departPos="58.3562" departSpeed="11.6446" speedFactor="0.8727" arrival="126.00">
        <route edges="E_in E_out"/>
    </vehicle>

    <vehicle id="flow_14_phase1_W_left.2" type="car" depart="69.00" departLane="1" departPos="84.296" departSpeed="4.0348" speedFactor="0.8975" arrival="127.00">
        <route edges="W_in N_out"/>
    </vehicle>

    <vehicle id="flow_5_phase1_S_straight.8" type="emergency" depart="106.00" departLane="0" departPos="65.7387" departSpeed="2.9737" speedFactor="1.1380" arrival="130.00">
        <route edges="S_in N_out"/>
    </vehicle>

    <vehicle id="flow_5_phase1_S_straight.7" type="bus" depart="93.00" departLane="0" departPos="178.3578" departSpeed="2.9959" speedFactor="0.9040" arrival="132.00">
        <route edges="S_in N_out"/>
    </vehicle>

    <vehicle id="flow_7_phase1_S_right.3" type="moto" depart="98.00" departLane="1" departPos="142.1182" departSpeed="0.5142" speedFactor="1.0682" arrival="132.00">
        <route edges="S_in E_out"/>
    </vehicle>

    <vehicle id="flow_14_phase1_W_left.3" type="moto" depart="104.00" departLane="0" departPos="173.6034" departSpeed="3.354" speedFactor="1.0873" arrival="139.00">
        <route edges="W_in N_out"/>
    </vehicle>

    <vehicle id="flow_3_phase1_N_right.3" type="moto" depart="103.00" departLane="1" departPos="109.812" departSpeed="0.1558" speedFactor="0.9618" arrival="140.00">
        <route edges="E_in N_out"/>
    </vehicle>

    <vehicle id="flow_13_phase1_W_straight.7" type="moto" depart="94.00" departLane="1" departPos="107.805" departSpeed="10.2122" speedFactor="0.8003" arrival="143.00">
        <route edges="W_in E_out"/>
    </vehicle>

    <vehicle id="flow_11_phase1_E_right.3" type="moto" depart="98.00" departLane="1" departPos="22.6438" departSpeed="7.7126" speedFactor="0.8330" arrival="144.00">
        <route edges="W_in S_out"/>
    </vehicle>

    <vehicle id="flow_2_phase1_N_left.3" type="moto" depart="99.00" departLane="1" departPos="111.5719" departSpeed="0.0905" speedFactor="0.8878" arrival="144.00">
        <route edges="W_in E_out"/>
    </vehicle>

    <vehicle id="flow_6_phase1_S_left.3" type="car" depart="101.00" departLane="0" departPos="36.1365" departSpeed="9.2199" speedFactor="1.0972" arrival="145.00">
        <route edges="W_in E_out"/>
    </vehicle>

    <vehicle id="flow_13_phase1_W_straight.8" type="moto" depart="108.00" departLane="1" departPos="57.3268" departSpeed="6.4693" speedFactor="1.0413" arrival="145.00">
        <route edges="W_in E_out"/>
    </vehicle>

    <vehicle id="flow_1_phase1_N_straight.2" type="moto" depart="28.00" departLane="1" departPos="107.5311" departSpeed="1.1094" speedFactor="0.9279" arrival="149.00">
        <route edges="E_in E_out"/>
    </vehicle>

    <vehicle id="flow_9_phase1_E_straight.9" type="truck" depart="116.00" departLane="0" departPos="2.521" departSpeed="5.0906" speedFactor="1.0019" arrival="149.00">
        <route edges="E_in W_out"/>
    </vehicle>

    <vehicle id="flow_5_phase1_S_straight.9" type="moto" depart="120.00" departLane="1" departPos="9.2851" departSpeed="9.2081" speedFactor="1.2976" arrival="151.00">
        <route edges="S_in N_out"/>
    </vehicle>

    <vehicle id="flow_7_phase1_S_right.4" type="moto" depart="130.00" departLane="1" departPos="133.5146" departSpeed="6.3849" speedFactor="0.9645" arrival="154.00">
        <route edges="S_in E_out"/>
    </vehicle>

    <vehicle id="flow_4_phase1_N_uturn.2" type="car" depart="133.00" departLane="1" departPos="146.8151" departSpeed="13.186" speedFactor="1.0323" arrival="155.00">
        <route edges="N_in N_out"/>
    </vehicle>

    <vehicle id="flow_9_phase1_E_straight.10" type="moto" depart="129.00" departLane="0" departPos="110.6444" departSpeed="8.4467" speedFactor="1.1157" arrival="166.00">
        <route edges="E_in W_out"/>
    </vehicle>

    <vehicle id="flow_2_phase1_N_left.4" type="moto" depart="131.00" departLane="1" departPos="55.6396" departSpeed="14.2045" speedFactor="1.1571" arrival="166.00">
        <route edges="W_in E_out"/>
    </vehicle>

    <vehicle id="flow_6_phase1_S_left.4" type="moto" depart="134.00" departLane="1" departPos="159.8742" departSpeed="7.6443" speedFactor="1.0387" arrival="166.00">
        <route edges="W_in E_out"/>
    </vehicle>

    <vehicle id="flow_13_phase1_W_straight.9" type="moto" depart="121.00" departLane="0" departPos="38.2894" departSpeed="0.3674" speedFactor="0.8391" arrival="169.00">
        <route edges="W_in E_out"/>
    </vehicle>

    <vehicle id="flow_16_phase1_W_uturn.2" type="car" depart="133.00" departLane="1" departPos="75.2144" departSpeed="5.763" speedFactor="0.8850" arrival="174.00">
        <route edges="W_in W_out"/>
    </vehicle>

    <vehicle id="flow_11_phase1_E_right.4" type="container" depart="130.00" departLane="0" departPos="72.9854" departSpeed="6.706" speedFactor="1.0240" arrival="175.00">
        <route edges="W_in S_out"/>
    </vehicle>

    <vehicle id="flow_14_phase1_W_left.4" type="bus" depart="138.00" departLane="1" departPos="114.5714" departSpeed="7.6669" speedFactor="0.8196" arrival="179.00">
        <route edges="W_in N_out"/>
    </vehicle>

    <vehicle id="flow_5_phase1_S_straight.10" type="moto" depart="133.00" departLane="0" departPos="5.0473" departSpeed="11.4061" speedFactor="1.0281" arrival="180.00">
        <route edges="S_in N_out"/>
    </vehicle>

    <vehicle id="flow_10_phase1_E_left.1" type="truck" depart="34.00" departLane="0" departPos="4.5211" departSpeed="10.4074" speedFactor="0.7665" arrival="183.00">
        <route edges="E_in S_out"/>
    </vehicle>

    <vehicle id="flow_8_phase1_S_uturn.2" type="moto" depart="132.00" departLane="1" departPos="60.4969" departSpeed="2.9711" speedFactor="0.9897" arrival="184.00">
        <route edges="S_in S_out"/>
    </vehicle>

    <vehicle id="flow_5_phase1_S_straight.12" type="moto" depart="159.00" departLane="1" departPos="41.7947" departSpeed="13.2708" speedFactor="1.0699" arrival="185.00">
        <route edges="S_in N_out"/>
    </vehicle>

    <vehicle id="flow_5_phase1_S_straight.11" type="bus" depart="146.00" departLane="1" departPos="66.1547" departSpeed="11.5919" speedFactor="0.9784" arrival="188.00">
        <route edges="S_in N_out"/>
    </vehicle>

    <vehicle id="flow_13_phase1_W_straight.10" type="moto" depart="134.00" departLane="0" departPos="77.131" departSpeed="8.0376" speedFactor="1.1421" arrival="191.00">
        <route edges="W_in E_out"/>
    </vehicle>

    <vehicle id="flow_13_phase1_W_straight.11" type="moto" depart="148.00" departLane="1" departPos="27.2886" departSpeed="13.9368" speedFactor="1.0140" arrival="192.00">
        <route edges="W_in E_out"/>
    </vehicle>

    <vehicle id="flow_13_phase1_W_straight.12" type="moto" depart="161.00" departLane="1" departPos="113.0073" departSpeed="14.2131" speedFactor="1.1365" arrival="193.00">
        <route edges="W_in E_out"/>
    </vehicle>

    <vehicle id="flow_2_phase1_N_left.5" type="car" depart="164.00" departLane="0" departPos="158.7036" departSpeed="2.4989" speedFactor="0.8868" arrival="197.00">
        <route edges="W_in E_out"/>
    </vehicle>

    <vehicle id="flow_15_phase1_W_right.4" type="bus" depart="132.00" departLane="0" departPos="2.1035" departSpeed="9.2821" speedFactor="0.9032" arrival="198.00">
        <route edges="W_in S_out"/>
    </vehicle>

    <vehicle id="flow_1_phase1_N_straight.3" type="moto" depart="41.00" departLane="0" departPos="19.2493" departSpeed="11.1917" speedFactor="1.2027" arrival="199.00">
        <route edges="E_in E_out"/>
    </vehicle>

    <vehicle id="flow_15_phase1_W_right.5" type="car" depart="165.00" departLane="1" departPos="11.4261" departSpeed="12.085" speedFactor="0.9653" arrival="200.00">
        <route edges="W_in S_out"/>
    </vehicle>

    <vehicle id="flow_14_phase1_W_left.5" type="bus" depart="173.00" departLane="1" departPos="102.4343" departSpeed="8.1808" speedFactor="0.9554" arrival="201.00">
        <route edges="W_in N_out"/>
    </vehicle>

    <vehicle id="flow_5_phase1_S_straight.13" type="moto" depart="172.00" departLane="1" departPos="120.4896" departSpeed="15.8451" speedFactor="1.2148" arrival="204.00">
        <route edges="S_in N_out"/>
    </vehicle>

    <vehicle id="flow_7_phase1_S_right.5" type="truck" depart="163.00" departLane="0" departPos="52.0012" departSpeed="2.188" speedFactor="1.0532" arrival="207.00">
        <route edges="S_in E_out"/>
    </vehicle>

    <vehicle id="flow_5_phase1_S_straight.14" type="car" depart="186.00" departLane="0" departPos="122.1483" departSpeed="0.5867" speedFactor="0.8047" arrival="214.00">
        <route edges="S_in N_out"/>
    </vehicle>

    <vehicle id="flow_11_phase1_E_right.5" type="moto" depart="163.00" departLane="0" departPos="15.88" departSpeed="1.7998" speedFactor="1.2552" arrival="216.00">
        <route edges="W_in S_out"/>
    </vehicle>

    <vehicle id="flow_13_phase1_W_straight.13" type="moto" depart="174.00" departLane="1" departPos="62.3987" departSpeed="9.0801" speedFactor="0.8917" arrival="220.00">
        <route edges="W_in E_out"/>
    </vehicle>

    <vehicle id="flow_13_phase1_W_straight.14" type="moto" depart="188.00" departLane="0" departPos="100.2317" departSpeed="12.0115" speedFactor="1.1523" arrival="222.00">
        <route edges="W_in E_out"/>
    </vehicle>

    <vehicle id="flow_6_phase1_S_left.5" type="bus" depart="168.00" departLane="0" departPos="22.6696" departSpeed="7.2411" speedFactor="0.9819" arrival="225.00">
        <route edges="W_in E_out"/>
    </vehicle>

    <vehicle id="flow_16_phase1_W_uturn.3" type="bus" depart="199.00" departLane="1" departPos="165.4841" departSpeed="8.1042" speedFactor="0.9363" arrival="226.00">
        <route edges="W_in W_out"/>
    </vehicle>

    <vehicle id="flow_10_phase1_E_left.2" type="moto" depart="67.00" departLane="0" departPos="78.0885" departSpeed="13.4813" speedFactor="1.0668" arrival="227.00">
        <route edges="E_in S_out"/>
    </vehicle>

    <vehicle id="flow_11_phase1_E_right.6" type="car" depart="195.00" departLane="0" departPos="15.6422" departSpeed="7.5963" speedFactor="0.9838" arrival="227.00">
        <route edges="W_in S_out"/>
    </vehicle>

    <vehicle id="flow_1_phase1_N_straight.5" type="moto" depart="68.00" departLane="0" departPos="87.7633" departSpeed="9.8301" speedFactor="0.9020" arrival="230.00">
        <route edges="E_in E_out"/>
    </vehicle>

    <vehicle id="flow_5_phase1_S_straight.16" type="moto" depart="212.00" departLane="1" departPos="96.8886" departSpeed="13.3221" speedFactor="1.2172" arrival="235.00">
        <route edges="S_in N_out"/>
    </vehicle>

    <vehicle id="flow_8_phase1_S_uturn.3" type="car" depart="198.00" departLane="1" departPos="12.5958" departSpeed="2.1699" speedFactor="0.8963" arrival="236.00">
        <route edges="S_in S_out"/>
    </vehicle>

    <vehicle id="flow_7_phase1_S_right.6" type="car" depart="195.00" departLane="1" departPos="28.4645" departSpeed="8.5302" speedFactor="1.1275" arrival="237.00">
        <route edges="S_in E_out"/>
    </vehicle>

    <vehicle id="flow_5_phase1_S_straight.15" type="container" depart="199.00" departLane="0" departPos="135.4921" departSpeed="5.2029" speedFactor="0.9628" arrival="239.00">
        <route edges="S_in N_out"/>
    </vehicle>

    <vehicle id="flow_3_phase1_N_right.4" type="moto" depart="137.00" departLane="0" departPos="62.1003" departSpeed="8.2355" speedFactor="1.0387" arrival="243.00">
        <route edges="E_in N_out"/>
    </vehicle>

    <vehicle id="flow_4_phase1_N_uturn.3" type="bus" depart="199.00" departLane="0" departPos="164.3932" departSpeed="10.8014" speedFactor="0.9700" arrival="244.00">
        <route edges="N_in N_out"/>
    </vehicle>

    <vehicle id="flow_13_phase1_W_straight.15" type="car" depart="201.00" departLane="0" departPos="80.2096" departSpeed="8.955" speedFactor="1.0262" arrival="244.00">
        <route edges="W_in E_out"/>
    </vehicle>

    <vehicle id="flow_9_phase1_E_straight.11" type="moto" depart="142.00" departLane="1" departPos="60.9644" departSpeed="6.212" speedFactor="1.0448" arrival="245.00">
        <route edges="E_in W_out"/>
    </vehicle>

    <vehicle id="flow_15_phase1_W_right.6" type="car" depart="198.00" departLane="1" departPos="36.0857" departSpeed="3.7779" speedFactor="0.9559" arrival="246.00">
        <route edges="W_in S_out"/>
    </vehicle>

    <vehicle id="flow_9_phase1_E_straight.12" type="moto" depart="155.00" departLane="0" departPos="129.443" departSpeed="7.5464" speedFactor="1.0047" arrival="247.00">
        <route edges="E_in W_out"/>
    </vehicle>

    <vehicle id="flow_6_phase1_S_left.6" type="bus" depart="201.00" departLane="1" departPos="106.5316" departSpeed="5.9235" speedFactor="1.0167" arrival="248.00">
        <route edges="W_in E_out"/>
    </vehicle>

    <vehicle id="flow_11_phase1_E_right.7" type="moto" depart="228.00" departLane="1" departPos="133.29" departSpeed="13.075" speedFactor="1.1783" arrival="248.00">
        <route edges="W_in S_out"/>
    </vehicle>

    <vehicle id="flow_3_phase1_N_right.5" type="moto" depart="171.00" departLane="0" departPos="114.397" departSpeed="12.2246" speedFactor="0.9059" arrival="250.00">
        <route edges="E_in N_out"/>
    </vehicle>

    <vehicle id="flow_2_phase1_N_left.6" type="moto" depart="197.00" departLane="0" departPos="24.2894" departSpeed="1.4004" speedFactor="0.8416" arrival="251.00">
        <route edges="W_in E_out"/>
    </vehicle>

    <vehicle id="flow_9_phase1_E_straight.13" type="moto" depart="168.00" departLane="1" departPos="50.8725" departSpeed="4.6303" speedFactor="0.9282" arrival="252.00">
        <route edges="E_in W_out"/>
    </vehicle>

    <vehicle id="flow_13_phase1_W_straight.16" type="truck" depart="215.00" departLane="1" departPos="159.745" departSpeed="5.8485" speedFactor="0.9269" arrival="252.00">
        <route edges="W_in E_out"/>
    </vehicle>

    <vehicle id="flow_9_phase1_E_straight.18" type="car" depart="232.00" departLane="0" departPos="166.4958" departSpeed="7.7881" speedFactor="1.0350" arrival="253.00">
        <route edges="E_in W_out"/>
    </vehicle>

    <vehicle id="flow_12_phase1_E_uturn.1" type="moto" depart="66.00" departLane="0" departPos="2.773" departSpeed="12.4982" speedFactor="0.9517" arrival="256.00">
        <route edges="E_in E_out"/>
    </vehicle>

    <vehicle id="flow_7_phase1_S_right.7" type="moto" depart="228.00" departLane="0" departPos="173.5249" departSpeed="9.343" speedFactor="0.9986" arrival="256.00">
        <route edges="S_in E_out"/>
    </vehicle>

    <vehicle id="flow_14_phase1_W_left.6" type="moto" depart="207.00" departLane="1" departPos="37.6432" departSpeed="6.1565" speedFactor="0.8697" arrival="257.00">
        <route edges="W_in N_out"/>
    </vehicle>

    <vehicle id="flow_5_phase1_S_straight.17" type="moto" depart="225.00" departLane="0" departPos="13.6209" departSpeed="10.7402" speedFactor="0.8818" arrival="259.00">
        <route edges="S_in N_out"/>
    </vehicle>

    <vehicle id="flow_2_phase1_N_left.7" type="car" depart="229.00" departLane="1" departPos="103.8474" departSpeed="11.8314" speedFactor="1.0423" arrival="270.00">
        <route edges="W_in E_out"/>
    </vehicle>

    <vehicle id="flow_3_phase1_N_right.7" type="moto" depart="240.00" departLane="0" departPos="188.1057" departSpeed="1.4933" speedFactor="0.9544" arrival="270.00">
        <route edges="E_in N_out"/>
    </vehicle>

    <vehicle id="flow_13_phase1_W_straight.17" type="truck" depart="228.00" departLane="0" departPos="117.1562" departSpeed="0.2136" speedFactor="0.8482" arrival="276.00">
        <route edges="W_in E_out"/>
    </vehicle>

    <vehicle id="flow_15_phase1_W_right.7" type="moto" depart="230.00" departLane="0" departPos="29.6392" departSpeed="2.3868" speedFactor="0.8417" arrival="276.00">
        <route edges="W_in S_out"/>
    </vehicle>

    <vehicle id="flow_13_phase1_W_straight.18" type="moto" depart="241.00" departLane="0" departPos="116.6185" departSpeed="6.9616" speedFactor="1.0628" arrival="277.00">
        <route edges="W_in E_out"/>
    </vehicle>

    <vehicle id="flow_14_phase1_W_left.7" type="moto" depart="242.00" departLane="1" departPos="134.6087" departSpeed="5.4037" speedFactor="1.0438" arrival="277.00">
        <route edges="W_in N_out"/>
    </vehicle>

    <vehicle id="flow_6_phase1_S_left.7" type="truck" depart="235.00" departLane="1" departPos="75.4843" departSpeed="6.6373" speedFactor="0.9351" arrival="278.00">
        <route edges="W_in E_out"/>
    </vehicle>

    <vehicle id="flow_5_phase1_S_straight.18" type="car" depart="239.00" departLane="0" departPos="25.1596" departSpeed="2.0636" speedFactor="1.1422" arrival="282.00">
        <route edges="S_in N_out"/>
    </vehicle>

    <vehicle id="flow_1_phase1_N_straight.10" type="bus" depart="136.00" departLane="0" departPos="180.9021" departSpeed="2.20" speedFactor="1.0325" arrival="283.00">
        <route edges="E_in E_out"/>