<?xml version="1.0" encoding="UTF-8"?>

<!-- generated on 2025-12-08 21:29:13 by Eclipse SUMO sumo Version 1.18.0
<configuration xmlns:xsi="http://www.w3.org/2001/XMLSchema-instance" xsi:noNamespaceSchemaLocation="http://sumo.dlr.de/xsd/sumoConfiguration.xsd">

    <input>
        <net-file value="/workspace/nets/60p2k/net.net.xml"/>
        <route-files value="/workspace/nets/60p2k/route_temp_244_130720908769792_63793894.rou.xml"/>
    </input>

    <output>
        <summary-output value="results/summary_ep_19.xml"/>
        <tripinfo-output value="results/tripinfo_ep_19.xml"/>
        <vehroute-output value="results/vehroute_ep_19.xml"/>
    </output>

    <time>
        <begin value="0"/>
    </time>

    <report>
        <verbose value="true"/>
        <no-step-log value="true"/>
    </report>

    <traci_server>
        <remote-port value="56621"/>
    </traci_server>

    <gui_only>
        <gui-settings-file value="/workspace/nets/60p2k/gui-settings.xml"/>
        <quit-on-end value="true"/>
    </gui_only>

</configuration>
-->

<routes xmlns:xsi="http://www.w3.org/2001/XMLSchema-instance" xsi:noNamespaceSchemaLocation="http://sumo.dlr.de/xsd/routes_file.xsd">
    <vehicle id="flow_5_phase1_S_straight.0" type="moto" depart="0.00" departLane="1" departPos="107.3659" departSpeed="7.2113" speedFactor="1.1475" arrival="21.00">
        <route edges="S_in N_out"/>
    </vehicle>

    <vehicle id="flow_12_phase1_E_uturn.0" type="moto" depart="0.00" departLane="0" departPos="129.8894" departSpeed="13.7593" speedFactor="1.0348" arrival="22.00">
        <route edges="S_in E_out"/>
    </vehicle>

    <vehicle id="flow_6_phase1_S_left.0" type="moto" depart="0.00" departLane="1" departPos="166.0107" departSpeed="0.7376" speedFactor="0.8806" arrival="25.00">
        <route edges="S_in W_out"/>
    </vehicle>

    <vehicle id="flow_4_phase1_N_uturn.0" type="car" depart="0.00" departLane="1" departPos="127.6015" departSpeed="0.0774" speedFactor="0.9228" arrival="28.00">
        <route edges="N_in N_out"/>
    </vehicle>

    <vehicle id="flow_10_phase1_E_left.0" type="truck" depart="0.00" departLane="0" departPos="44.8816" departSpeed="7.6878" speedFactor="1.0161" arrival="28.00">
        <route edges="N_in S_out"/>
    </vehicle>

    <vehicle id="flow_3_phase1_N_right.0" type="car" depart="0.00" departLane="0" departPos="103.3842" departSpeed="3.7523" speedFactor="1.0907" arrival="30.00">
        <route edges="N_in N_out"/>
    </vehicle>

    <vehicle id="flow_2_phase1_N_left.0" type="moto" depart="0.00" departLane="1" departPos="8.2688" departSpeed="8.3291" speedFactor="1.0157" arrival="31.00">
        <route edges="S_in E_out"/>
    </vehicle>

    <vehicle id="flow_16_phase1_W_uturn.0" type="moto" depart="0.00" departLane="0" departPos="135.6701" departSpeed="9.6426" speedFactor="1.0383" arrival="36.00">
        <route edges="W_in N_out"/>
    </vehicle>

    <vehicle id="flow_8_phase1_S_uturn.0" type="moto" depart="0.00" departLane="0" departPos="120.1072" departSpeed="4.4837" speedFactor="1.0505" arrival="37.00">
        <route edges="W_in E_out"/>
    </vehicle>

    <vehicle id="flow_14_phase1_W_left.0" type="moto" depart="0.00" departLane="1" departPos="42.3057" departSpeed="3.7077" speedFactor="1.0101" arrival="37.00">
        <route edges="W_in N_out"/>
    </vehicle>

    <vehicle id="flow_15_phase1_W_right.0" type="moto" depart="0.00" departLane="1" departPos="153.8984" departSpeed="6.7313" speedFactor="0.8472" arrival="39.00">
        <route edges="W_in S_out"/>
    </vehicle>

    <vehicle id="flow_9_phase1_E_straight.0" type="truck" depart="0.00" departLane="0" departPos="168.2937" departSpeed="9.8263" speedFactor="0.8990" arrival="40.00">
        <route edges="E_in N_out"/>
    </vehicle>

    <vehicle id="flow_9_phase1_E_straight.1" type="moto" depart="13.00" departLane="1" departPos="177.286" departSpeed="8.4065" speedFactor="1.1582" arrival="41.00">
        <route edges="E_in N_out"/>
    </vehicle>

    <vehicle id="flow_1_phase1_N_straight.0" type="bus" depart="0.00" departLane="0" departPos="8.6229" departSpeed="8.5053" speedFactor="0.8588" arrival="45.00">
        <route edges="W_in W_out"/>
    </vehicle>

    <vehicle id="flow_11_phase1_E_right.0" type="bus" depart="0.00" departLane="1" departPos="144.9496" departSpeed="4.0187" speedFactor="0.9581" arrival="45.00">
        <route edges="E_in N_out"/>
    </vehicle>

    <vehicle id="flow_5_phase1_S_straight.1" type="moto" depart="14.00" departLane="1" departPos="181.05" departSpeed="2.6944" speedFactor="1.1853" arrival="48.00">
        <route edges="S_in N_out"/>
    </vehicle>

    <vehicle id="flow_7_phase1_S_right.0" type="container" depart="0.00" departLane="0" departPos="8.759" departSpeed="8.0654" speedFactor="0.8488" arrival="58.00">
        <route edges="S_in E_out"/>
    </vehicle>

    <vehicle id="flow_15_phase1_W_right.1" type="moto" depart="33.00" departLane="1" departPos="156.5209" departSpeed="5.6276" speedFactor="1.0788" arrival="60.00">
        <route edges="W_in S_out"/>
    </vehicle>

    <vehicle id="flow_9_phase1_E_straight.2" type="moto" depart="26.00" departLane="1" departPos="103.6674" departSpeed="3.8519" speedFactor="0.9938" arrival="61.00">
        <route edges="E_in N_out"/>
    </vehicle>

    <vehicle id="flow_11_phase1_E_right.1" type="moto" depart="33.00" departLane="0" departPos="80.2425" departSpeed="9.7779" speedFactor="1.0365" arrival="63.00">
        <route edges="E_in N_out"/>
    </vehicle>

    <vehicle id="flow_1_phase1_N_straight.3" type="moto" depart="41.00" departLane="0" departPos="132.6219" departSpeed="5.486" speedFactor="1.2027" arrival="68.00">
        <route edges="W_in W_out"/>
    </vehicle>

    <vehicle id="flow_13_phase1_W_straight.0" type="container" depart="0.00" departLane="0" departPos="77.991" departSpeed="1.4795" speedFactor="0.8227" arrival="69.00">
        <route edges="W_in W_out"/>
    </vehicle>

    <vehicle id="flow_9_phase1_E_straight.3" type="bus" depart="39.00" departLane="1" departPos="165.6783" departSpeed="5.3945" speedFactor="0.8515" arrival="70.00">
        <route edges="E_in N_out"/>
    </vehicle>

    <vehicle id="flow_1_phase1_N_straight.1" type="moto" depart="14.00" departLane="0" departPos="93.3916" departSpeed="3.7336" speedFactor="0.8727" arrival="73.00">
        <route edges="W_in W_out"/>
    </vehicle>

    <vehicle id="flow_5_phase1_S_straight.2" type="moto" depart="27.00" departLane="0" departPos="33.9342" departSpeed="0.8958" speedFactor="0.9623" arrival="76.00">
        <route edges="S_in N_out"/>
    </vehicle>

    <vehicle id="flow_6_phase1_S_left.1" type="moto" depart="34.00" departLane="0" departPos="69.2372" departSpeed="6.0614" speedFactor="1.0453" arrival="81.00">
        <route edges="S_in W_out"/>
    </vehicle>

    <vehicle id="flow_3_phase1_N_right.1" type="moto" depart="35.00" departLane="1" departPos="118.5435" departSpeed="10.7169" speedFactor="0.8806" arrival="82.00">
        <route edges="N_in N_out"/>
    </vehicle>

    <vehicle id="flow_10_phase1_E_left.1" type="truck" depart="34.00" departLane="1" departPos="57.3992" departSpeed="0.2541" speedFactor="0.7665" arrival="83.00">
        <route edges="N_in S_out"/>
    </vehicle>

    <vehicle id="flow_5_phase1_S_straight.3" type="moto" depart="40.00" departLane="0" departPos="56.1823" departSpeed="7.5406" speedFactor="1.0764" arrival="83.00">
        <route edges="S_in N_out"/>
    </vehicle>

    <vehicle id="flow_7_phase1_S_right.1" type="container" depart="33.00" departLane="0" departPos="54.9911" departSpeed="3.8367" speedFactor="0.7845" arrival="85.00">
        <route edges="S_in E_out"/>
    </vehicle>

    <vehicle id="flow_13_phase1_W_straight.1" type="car" depart="14.00" departLane="1" departPos="28.7874" departSpeed="10.0051" speedFactor="1.1218" arrival="86.00">
        <route edges="W_in W_out"/>
    </vehicle>

    <vehicle id="flow_9_phase1_E_straight.4" type="bus" depart="52.00" departLane="1" departPos="135.0364" departSpeed="3.7231" speedFactor="0.9525" arrival="93.00">
        <route edges="E_in N_out"/>
    </vehicle>

    <vehicle id="flow_9_phase1_E_straight.5" type="moto" depart="65.00" departLane="0" departPos="125.7621" departSpeed="4.7721" speedFactor="0.9964" arrival="94.00">
        <route edges="E_in N_out"/>
    </vehicle>

    <vehicle id="flow_13_phase1_W_straight.2" type="bus" depart="27.00" departLane="1" departPos="64.277" departSpeed="4.213" speedFactor="0.9657" arrival="95.00">
        <route edges="W_in W_out"/>
    </vehicle>

    <vehicle id="flow_11_phase1_E_right.2" type="moto" depart="65.00" departLane="0" departPos="52.573" departSpeed="9.361" speedFactor="1.1432" arrival="95.00">
        <route edges="E_in N_out"/>
    </vehicle>

    <vehicle id="flow_2_phase1_N_left.1" type="moto" depart="33.00" departLane="0" departPos="15.1679" departSpeed="0.7311" speedFactor="1.1228" arrival="99.00">
        <route edges="S_in E_out"/>
    </vehicle>

    <vehicle id="flow_2_phase1_N_left.2" type="emergency" depart="66.00" departLane="1" departPos="112.3734" departSpeed="10.3998" speedFactor="1.0989" arrival="101.00">
        <route edges="S_in E_out"/>
    </vehicle>

    <vehicle id="flow_10_phase1_E_left.2" type="moto" depart="67.00" departLane="1" departPos="74.602" departSpeed="12.1497" speedFactor="1.0668" arrival="101.00">
        <route edges="N_in S_out"/>
    </vehicle>

    <vehicle id="flow_12_phase1_E_uturn.1" type="moto" depart="66.00" departLane="1" departPos="91.5182" departSpeed="11.3846" speedFactor="0.9517" arrival="105.00">
        <route edges="S_in E_out"/>
    </vehicle>

    <vehicle id="flow_7_phase1_S_right.2" type="moto" depart="65.00" departLane="1" departPos="29.1154" departSpeed="12.0849" speedFactor="1.0283" arrival="106.00">
        <route edges="S_in E_out"/>
    </vehicle>

    <vehicle id="flow_5_phase1_S_straight.4" type="container" depart="53.00" departLane="0" departPos="26.7631" departSpeed="9.623" speedFactor="0.9706" arrival="109.00">
        <route edges="S_in N_out"/>
    </vehicle>

    <vehicle id="flow_6_phase1_S_left.2" type="truck" depart="67.00" departLane="0" departPos="21.6793" departSpeed="11.2761" speedFactor="0.8923" arrival="110.00">
        <route edges="S_in W_out"/>
    </vehicle>

    <vehicle id="flow_5_phase1_S_straight.5" type="moto" depart="67.00" departLane="1" departPos="2.2119" departSpeed="9.3975" speedFactor="1.0265" arrival="111.00">
        <route edges="S_in N_out"/>
    </vehicle>

    <vehicle id="flow_4_phase1_N_uturn.1" type="moto" depart="67.00" departLane="0" departPos="64.2471" departSpeed="6.1278" speedFactor="0.9374" arrival="112.00">
        <route edges="N_in N_out"/>
    </vehicle>

    <vehicle id="flow_9_phase1_E_straight.6" type="moto" depart="78.00" departLane="0" departPos="18.5245" departSpeed="1.6262" speedFactor="1.0203" arrival="113.00">
        <route edges="E_in N_out"/>
    </vehicle>

    <vehicle id="flow_1_phase1_N_straight.2" type="moto" depart="28.00" departLane="1" departPos="39.2795" departSpeed="7.315" speedFactor="0.9279" arrival="114.00">
        <route edges="W_in W_out"/>
    </vehicle>

    <vehicle id="flow_15_phase1_W_right.2" type="moto" depart="66.00" departLane="1" departPos="65.5698" departSpeed="2.068" speedFactor="0.8882" arrival="115.00">
        <route edges="W_in S_out"/>
    </vehicle>

    <vehicle id="flow_9_phase1_E_straight.7" type="moto" depart="91.00" departLane="1" departPos="41.8299" departSpeed="13.187" speedFactor="1.0085" arrival="119.00">
        <route edges="E_in N_out"/>
    </vehicle>

    <vehicle id="flow_8_phase1_S_uturn.1" type="truck" depart="66.00" departLane="1" departPos="104.1356" departSpeed="1.3436" speedFactor="0.9396" arrival="120.00">
        <route edges="W_in E_out"/>
    </vehicle>

    <vehicle id="flow_14_phase1_W_left.1" type="container" depart="35.00" departLane="1" departPos="80.5996" departSpeed="6.2634" speedFactor="0.9146" arrival="124.00">
        <route edges="W_in N_out"/>
    </vehicle>

    <vehicle id="flow_5_phase1_S_straight.6" type="moto" depart="80.00" departLane="1" departPos="37.0366" departSpeed="3.4769" speedFactor="1.0983" arrival="126.00">
        <route edges="S_in N_out"/>
    </vehicle>

    <vehicle id="flow_5_phase1_S_straight.8" type="emergency" depart="106.00" departLane="0" departPos="157.0309" departSpeed="6.0187" speedFactor="1.1380" arrival="127.00">
        <route edges="S_in N_out"/>
    </vehicle>

    <vehicle id="flow_3_phase1_N_right.2" type="moto" depart="69.00" departLane="0" departPos="69.4902" departSpeed="6.8245" speedFactor="1.1043" arrival="131.00">
        <route edges="N_in N_out"/>
    </vehicle>

    <vehicle id="flow_10_phase1_E_left.3" type="truck" depart="101.00" departLane="1" departPos="103.4641" departSpeed="3.4103" speedFactor="1.0651" arrival="132.00">
        <route edges="N_in S_out"/>
    </vehicle>

    <vehicle id="flow_5_phase1_S_straight.7" type="bus" depart="93.00" departLane="1" departPos="150.3544" departSpeed="7.1447" speedFactor="0.9040" arrival="133.00">
        <route edges="S_in N_out"/>
    </vehicle>

    <vehicle id="flow_2_phase1_N_left.3" type="moto" depart="99.00" departLane="1" departPos="140.1205" departSpeed="9.784" speedFactor="0.8878" arrival="134.00">
        <route edges="S_in E_out"/>
    </vehicle>

    <vehicle id="flow_6_phase1_S_left.3" type="car" depart="101.00" departLane="1" departPos="2.2093" departSpeed="8.0575" speedFactor="1.0972" arrival="134.00">
        <route edges="S_in W_out"/>
    </vehicle>

    <vehicle id="flow_7_phase1_S_right.3" type="moto" depart="98.00" departLane="1" departPos="86.4019" departSpeed="1.7733" speedFactor="1.0682" arrival="135.00">
        <route edges="S_in E_out"/>
    </vehicle>

    <vehicle id="flow_3_phase1_N_right.3" type="moto" depart="103.00" departLane="1" departPos="42.0768" departSpeed="12.0971" speedFactor="0.9618" arrival="135.00">
        <route edges="N_in N_out"/>
    </vehicle>

    <vehicle id="flow_15_phase1_W_right.3" type="moto" depart="99.00" departLane="1" departPos="74.7856" departSpeed="3.0495" speedFactor="1.1705" arrival="138.00">
        <route edges="W_in S_out"/>
    </vehicle>

    <vehicle id="flow_1_phase1_N_straight.7" type="moto" depart="95.00" departLane="0" departPos="140.508" departSpeed="11.0712" speedFactor="1.0626" arrival="140.00">
        <route edges="W_in W_out"/>
    </vehicle>

    <vehicle id="flow_11_phase1_E_right.3" type="moto" depart="98.00" departLane="1" departPos="16.1283" departSpeed="6.8136" speedFactor="0.8330" arrival="143.00">
        <route edges="E_in N_out"/>
    </vehicle>

    <vehicle id="flow_9_phase1_E_straight.8" type="moto" depart="104.00" departLane="0" departPos="35.6434" departSpeed="3.0133" speedFactor="0.9385" arrival="144.00">
        <route edges="E_in N_out"/>
    </vehicle>

    <vehicle id="flow_13_phase1_W_straight.7" type="moto" depart="94.00" departLane="0" departPos="107.9927" departSpeed="0.9409" speedFactor="0.8003" arrival="145.00">
        <route edges="W_in W_out"/>
    </vehicle>

    <vehicle id="flow_1_phase1_N_straight.4" type="truck" depart="55.00" departLane="0" departPos="128.0429" departSpeed="4.9925" speedFactor="0.9194" arrival="148.00">
        <route edges="W_in W_out"/>
    </vehicle>

    <vehicle id="flow_5_phase1_S_straight.9" type="moto" depart="120.00" departLane="0" departPos="110.6444" departSpeed="8.7146" speedFactor="1.2976" arrival="152.00">
        <route edges="S_in N_out"/>
    </vehicle>

    <vehicle id="flow_10_phase1_E_left.4" type="moto" depart="134.00" departLane="1" departPos="181.5712" departSpeed="0.229" speedFactor="1.0039" arrival="153.00">
        <route edges="N_in S_out"/>
    </vehicle>

    <vehicle id="flow_6_phase1_S_left.4" type="moto" depart="134.00" departLane="1" departPos="149.7816" departSpeed="13.1027" speedFactor="1.0387" arrival="155.00">
        <route edges="S_in W_out"/>
    </vehicle>

    <vehicle id="flow_7_phase1_S_right.4" type="moto" depart="130.00" departLane="1" departPos="188.5725" departSpeed="1.0265" speedFactor="0.9645" arrival="156.00">
        <route edges="S_in E_out"/>
    </vehicle>

    <vehicle id="flow_5_phase1_S_straight.10" type="moto" depart="133.00" departLane="0" departPos="180.9021" departSpeed="4.6479" speedFactor="1.0281" arrival="157.00">
        <route edges="S_in N_out"/>
    </vehicle>

    <vehicle id="flow_4_phase1_N_uturn.2" type="car" depart="133.00" departLane="0" departPos="77.131" departSpeed="7.2649" speedFactor="1.0323" arrival="161.00">
        <route edges="N_in N_out"/>
    </vehicle>

    <vehicle id="flow_12_phase1_E_uturn.2" type="bus" depart="132.00" departLane="1" departPos="75.2144" departSpeed="6.0658" speedFactor="0.9315" arrival="163.00">
        <route edges="S_in E_out"/>
    </vehicle>

    <vehicle id="flow_13_phase1_W_straight.3" type="car" depart="41.00" departLane="0" departPos="125.4807" departSpeed="3.7262" speedFactor="1.0479" arrival="165.00">
        <route edges="W_in W_out"/>
    </vehicle>

    <vehicle id="flow_9_phase1_E_straight.9" type="truck" depart="116.00" departLane="1" departPos="7.4986" departSpeed="3.9655" speedFactor="1.0019" arrival="169.00">
        <route edges="E_in N_out"/>
    </vehicle>

    <vehicle id="flow_9_phase1_E_straight.10" type="moto" depart="129.00" departLane="1" departPos="60.4969" departSpeed="3.3494" speedFactor="1.1157" arrival="169.00">
        <route edges="E_in N_out"/>
    </vehicle>

    <vehicle id="flow_13_phase1_W_straight.4" type="bus" depart="54.00" departLane="0" departPos="91.0122" departSpeed="4.4892" speedFactor="0.8691" arrival="174.00">
        <route edges="W_in W_out"/>
    </vehicle>

    <vehicle id="flow_11_phase1_E_right.4" type="container" depart="130.00" departLane="1" departPos="9.1985" departSpeed="9.1769" speedFactor="1.0240" arrival="176.00">
        <route edges="E_in N_out"/>
    </vehicle>

    <vehicle id="flow_2_phase1_N_left.4" type="moto" depart="131.00" departLane="0" departPos="2.1035" departSpeed="11.8295" speedFactor="1.1571" arrival="177.00">
        <route edges="S_in E_out"/>
    </vehicle>

    <vehicle id="flow_5_phase1_S_straight.11" type="bus" depart="146.00" departLane="0" departPos="52.0012" departSpeed="2.0326" speedFactor="0.9784" arrival="178.00">
        <route edges="S_in N_out"/>
    </vehicle>

    <vehicle id="flow_3_phase1_N_right.4" type="moto" depart="137.00" departLane="0" departPos="27.2886" departSpeed="12.3489" speedFactor="1.0387" arrival="181.00">
        <route edges="N_in N_out"/>
    </vehicle>

    <vehicle id="flow_7_phase1_S_right.5" type="truck" depart="163.00" departLane="0" departPos="114.397" departSpeed="14.2123" speedFactor="1.0532" arrival="187.00">
        <route edges="S_in E_out"/>
    </vehicle>

    <vehicle id="flow_9_phase1_E_straight.11" type="moto" depart="142.00" departLane="0" departPos="72.1694" departSpeed="9.8611" speedFactor="1.0448" arrival="191.00">
        <route edges="E_in N_out"/>
    </vehicle>

    <vehicle id="flow_11_phase1_E_right.5" type="moto" depart="163.00" departLane="1" departPos="120.4896" departSpeed="15.8451" speedFactor="1.2552" arrival="192.00">
        <route edges="E_in N_out"/>
    </vehicle>

    <vehicle id="flow_13_phase1_W_straight.5" type="moto" depart="67.00" departLane="1" departPos="87.7633" departSpeed="7.1617" speedFactor="1.1413" arrival="193.00">
        <route edges="W_in W_out"/>
    </vehicle>

    <vehicle id="flow_16_phase1_W_uturn.2" type="car" depart="133.00" departLane="0" departPos="62.1003" departSpeed="7.0168" speedFactor="0.8850" arrival="195.00">
        <route edges="W_in N_out"/>
    </vehicle>

    <vehicle id="flow_9_phase1_E_straight.12" type="moto" depart="155.00" departLane="0" departPos="11.4261" departSpeed="13.6104" speedFactor="1.0047" arrival="196.00">
        <route edges="E_in N_out"/>
    </vehicle>

    <vehicle id="flow_8_phase1_S_uturn.2" type="moto" depart="132.00" departLane="1" departPos="5.0473" departSpeed="12.6418" speedFactor="0.9897" arrival="197.00">
        <route edges="W_in E_out"/>
    </vehicle>

    <vehicle id="flow_15_phase1_W_right.4" type="bus" depart="132.00" departLane="1" departPos="45.6162" departSpeed="6.6471" speedFactor="0.9032" arrival="197.00">
        <route edges="W_in S_out"/>
    </vehicle>

    <vehicle id="flow_16_phase1_W_uturn.1" type="moto" depart="67.00" departLane="1" departPos="39.3431" departSpeed="4.8067" speedFactor="1.0390" arrival="198.00">
        <route edges="W_in N_out"/>
    </vehicle>

    <vehicle id="flow_1_phase1_N_straight.5" type="moto" depart="68.00" departLane="0" departPos="61.3216" departSpeed="5.5985" speedFactor="0.9020" arrival="199.00">
        <route edges="W_in W_out"/>
    </vehicle>

    <vehicle id="flow_9_phase1_E_straight.13" type="moto" depart="168.00" departLane="1" departPos="144.3484" departSpeed="1.5391" speedFactor="0.9282" arrival="199.00">
        <route edges="E_in N_out"/>
    </vehicle>

    <vehicle id="flow_14_phase1_W_left.2" type="car" depart="69.00" departLane="1" departPos="24.5526" departSpeed="1.9663" speedFactor="0.8975" arrival="202.00">
        <route edges="W_in N_out"/>
    </vehicle>

    <vehicle id="flow_5_phase1_S_straight.13" type="moto" depart="172.00" departLane="0" departPos="142.3358" departSpeed="10.7834" speedFactor="1.2148" arrival="204.00">
        <route edges="S_in N_out"/>
    </vehicle>

    <vehicle id="flow_5_phase1_S_straight.12" type="moto" depart="159.00" departLane="0" departPos="22.6696" departSpeed="7.8901" speedFactor="1.0699" arrival="205.00">
        <route edges="S_in N_out"/>
    </vehicle>

    <vehicle id="flow_10_phase1_E_left.5" type="moto" depart="168.00" departLane="0" departPos="26.4929" departSpeed="0.6021" speedFactor="1.0856" arrival="205.00">
        <route edges="N_in S_out"/>
    </vehicle>

    <vehicle id="flow_2_phase1_N_left.5" type="car" depart="164.00" departLane="1" departPos="0.9771" departSpeed="7.5934" speedFactor="0.8868" arrival="209.00">
        <route edges="S_in E_out"/>
    </vehicle>

    <vehicle id="flow_6_phase1_S_left.5" type="bus" depart="168.00" departLane="0" departPos="108.1078" departSpeed="1.9981" speedFactor="0.9819" arrival="210.00">
        <route edges="S_in W_out"/>
    </vehicle>

    <vehicle id="flow_3_phase1_N_right.5" type="moto" depart="171.00" departLane="1" departPos="180.2387" departSpeed="6.9301" speedFactor="0.9059" arrival="215.00">
        <route edges="N_in N_out"/>
    </vehicle>

    <vehicle id="flow_11_phase1_E_right.6" type="car" depart="195.00" departLane="0" departPos="182.8634" departSpeed="5.6178" speedFactor="0.9838" arrival="217.00">
        <route edges="E_in N_out"/>
    </vehicle>

    <vehicle id="flow_13_phase1_W_straight.6" type="car" depart="81.00" departLane="1" departPos="47.4954" departSpeed="4.3522" speedFactor="0.9759" arrival="219.00">
        <route edges="W_in W_out"/>
    </vehicle>

    <vehicle id="flow_15_phase1_W_right.5" type="car" depart="165.00" departLane="1" departPos="62.3987" departSpeed="8.9092" speedFactor="0.9653" arrival="219.00">
        <route edges="W_in S_out"/>
    </vehicle>

    <vehicle id="flow_13_phase1_W_straight.13" type="moto" depart="174.00" departLane="0" departPos="15.6422" departSpeed="6.8852" speedFactor="0.8917" arrival="223.00">
        <route edges="W_in W_out"/>
    </vehicle>

    <vehicle id="flow_9_phase1_E_straight.14" type="moto" depart="181.00" departLane="1" departPos="12.5958" departSpeed="2.0682" speedFactor="0.8543" arrival="223.00">
        <route edges="E_in N_out"/>
    </vehicle>

    <vehicle id="flow_1_phase1_N_straight.6" type="car" depart="82.00" departLane="0" departPos="36.1232" departSpeed="6.3435" speedFactor="0.9797" arrival="225.00">
        <route edges="W_in W_out"/>
    </vehicle>

    <vehicle id="flow_14_phase1_W_left.3" type="moto" depart="104.00" departLane="1" departPos="84.7431" departSpeed="3.9944" speedFactor="1.0873" arrival="225.00">
        <route edges="W_in N_out"/>
    </vehicle>

    <vehicle id="flow_9_phase1_E_straight.15" type="bus" depart="194.00" departLane="0" departPos="63.275" departSpeed="4.7636" speedFactor="0.8815" arrival="228.00">
        <route edges="E_in N_out"/>
    </vehicle>

    <vehicle id="flow_7_phase1_S_right.6" type="car" depart="195.00" departLane="1" departPos="79.4706" departSpeed="13.6788" speedFactor="1.1275" arrival="229.00">
        <route edges="S_in E_out"/>
    </vehicle>

    <vehicle id="flow_10_phase1_E_left.6" type="bus" depart="201.00" departLane="1" departPos="67.2783" departSpeed="2.4099" speedFactor="0.9234" arrival="232.00">
        <route edges="N_in S_out"/>
    </vehicle>

    <vehicle id="flow_5_phase1_S_straight.14" type="car" depart="186.00" departLane="1" departPos="20.6867" departSpeed="9.0679" speedFactor="0.8047" arrival="235.00">
        <route edges="S_in N_out"/>
    </vehicle>

    <vehicle id="flow_6_phase1_S_left.6" type="bus" depart="201.00" departLane="1" departPos="159.745" departSpeed="6.4152" speedFactor="1.0167" arrival="237.00">
        <route edges="S_in W_out"/>
    </vehicle>

    <vehicle id="flow_5_phase1_S_straight.16" type="moto" depart="212.00" departLane="1" departPos="154.8347" departSpeed="8.881" speedFactor="1.2172" arrival="237.00">
        <route edges="S_in N_out"/>
    </vehicle>

    <vehicle id="flow_5_phase1_S_straight.15" type="container" depart="199.00" departLane="0" departPos="96.5573" departSpeed="11.6251" speedFactor="0.9628" arrival="241.00">
        <route edges="S_in N_out"/>
    </vehicle>

    <vehicle id="flow_1_phase1_N_straight.14" type="car" depart="190.00" departLane="0" departPos="164.3932" departSpeed="8.6848" speedFactor="0.9718" arrival="244.00">
        <route edges="W_in W_out"/>
    </vehicle>

    <vehicle id="flow_15_phase1_W_right.6" type="car" depart="198.00" departLane="0" departPos="153.1849" departSpeed="3.0778" speedFactor="0.9559" arrival="245.00">
        <route edges="W_in S_out"/>
    </vehicle>

    <vehicle id="flow_9_phase1_E_straight.16" type="moto" depart="207.00" departLane="0" departPos="154.9386" departSpeed="8.3737" speedFactor="0.8950" arrival="245.00">
        <route edges="E_in N_out"/>
    </vehicle>

    <vehicle id="flow_13_phase1_W_straight.8" type="moto" depart="108.00" departLane="1" departPos="69.3051" departSpeed="13.5693" speedFactor="1.0413" arrival="246.00">
        <route edges="W_in W_out"/>
    </vehicle>

    <vehicle id="flow_4_phase1_N_uturn.3" type="bus" depart="199.00" departLane="0" departPos="75.6038" departSpeed="7.0298" speedFactor="0.9700" arrival="246.00">
        <route edges="N_in N_out"/>
    </vehicle>

    <vehicle id="flow_9_phase1_E_straight.17" type="moto" depart="219.00" departLane="0" departPos="166.4958" departSpeed="10.2961" speedFactor="1.1149" arrival="246.00">
        <route edges="E_in N_out"/>
    </vehicle>

    <vehicle id="flow_1_phase1_N_straight.8" type="moto" depart="109.00" departLane="1" departPos="38.2894" departSpeed="2.8633" speedFactor="0.9730" arrival="250.00">
        <route edges="W_in W_out"/>
    </vehicle>

    <vehicle id="flow_12_phase1_E_uturn.3" type="moto" depart="198.00" departLane="0" departPos="58.4782" departSpeed="8.7858" speedFactor="1.0747" arrival="256.00">
        <route edges="S_in E_out"/>
    </vehicle>

    <vehicle id="flow_13_phase1_W_straight.17" type="truck" depart="228.00" departLane="0" departPos="188.1057" departSpeed="1.4933" speedFactor="0.8482" arrival="257.00">
        <route edges="W_in W_out"/>
    </vehicle>

    <vehicle id="flow_5_phase1_S_straight.17" type="moto" depart="225.00" departLane="1" departPos="75.4843" departSpeed="6.2589" speedFactor="0.8818" arrival="259.00">
        <route edges="S_in N_out"/>
    </vehicle>

    <vehicle id="flow_2_phase1_N_left.6" type="moto" depart="197.00" departLane="1" departPos="55.0563" departSpeed="2.2737" speedFactor="0.8416" arrival="261.00">
        <route edges="S_in E_out"/>
    </vehicle>

    <vehicle id="flow_2_phase1_N_left.7" type="car" depart="229.00" departLane="0" departPos="116.6185" departSpeed="6.8273" speedFactor="1.0423" arrival="262.00">
        <route edges="S_in E_out"/>
    </vehicle>

    <vehicle id="flow_7_phase1_S_right.7" type="moto" depart="228.00" departLane="0" departPos="6.1547" departSpeed="12.3883" speedFactor="0.9986" arrival="264.00">
        <route edges="S_in E_out"/>
    </vehicle>

    <vehicle id="flow_6_phase1_S_left.7" type="truck" depart="235.00" departLane="1" departPos="85.9828" departSpeed="1.8605" speedFactor="0.9351" arrival="267.00">
        <route edges="S_in W_out"/>
    </vehicle>

    <vehicle id="flow_9_phase1_E_straight.18" type="car" depart="232.00" departLane="1" departPos="145.5875" departSpeed="6.4769" speedFactor="1.0350" arrival="269.00">
        <route edges="E_in N_out"/>
    </vehicle>

    <vehicle id="flow_3_phase1_N_right.6" type="truck" depart="206.00" departLane="0" departPos="13.6209" departSpeed="11.0045" speedFactor="0.9035" arrival="271.00">
        <route edges="N_in N_out"/>
    </vehicle>

    <vehicle id="flow_11_phase1_E_right.7" type="moto" depart="228.00" departLane="0" departPos="25.1596" departSpeed="2.0796" speedFactor="1.1783" arrival="271.00">
        <route edges="E_in N_out"/>
    </vehicle>

    <vehicle id="flow_13_phase1_W_straight.9" type="moto" depart="121.00" departLane="1" departPos="90.8186" departSpeed="5.5548" speedFactor="0.8391" arrival="272.00">
        <route edges="W_in W_out"/>
    </vehicle>

    <vehicle id="flow_13_phase1_W_straight.18" type="moto" depart="241.00" departLane="0" departPos="186.2285" departSpeed="3.1306" speedFactor="1.0628" arrival="273.00">
        <route edges="W_in W_out"/>
    </vehicle>

    <vehicle id="flow_9_phase1_E_straight.19" type="bus" depart="245.00" departLane="1" departPos="15.0543" departSpeed="12.3233" speedFactor="1.0314" arrival="276.00">
        <route edges="E_in N_out"/>
    </vehicle>
