<?xml version="1.0" encoding="UTF-8"?>

<!-- generated on 2025-12-08 21:23:29 by Eclipse SUMO sumo Version 1.18.0
<configuration xmlns:xsi="http://www.w3.org/2001/XMLSchema-instance" xsi:noNamespaceSchemaLocation="http://sumo.dlr.de/xsd/sumoConfiguration.xsd">

    <input>
        <net-file value="/workspace/nets/60p2k/net.net.xml"/>
        <route-files value="/workspace/nets/60p2k/route_temp_244_130720908769792_63793894.rou.xml"/>
    </input>

    <output>
        <summary-output value="results/summary_ep_6.xml"/>
        <tripinfo-output value="results/tripinfo_ep_6.xml"/>
        <vehroute-output value="results/vehroute_ep_6.xml"/>
    </output>

    <time>
        <begin value="0"/>
    </time>

    <report>
        <verbose value="true"/>
        <no-step-log value="true"/>
    </report>

    <traci_server>
        <remote-port value="48893"/>
    </traci_server>

    <gui_only>
        <gui-settings-file value="/workspace/nets/60p2k/gui-settings.xml"/>
        <quit-on-end value="true"/>
    </gui_only>

</configuration>
-->

<routes xmlns:xsi="http://www.w3.org/2001/XMLSchema-instance" xsi:noNamespaceSchemaLocation="http://sumo.dlr.de/xsd/routes_file.xsd">
    <vehicle id="flow_9_phase1_E_straight.0" type="truck" depart="0.00" departLane="0" departPos="168.2937" departSpeed="10.3006" speedFactor="0.8990" arrival="22.00">
        <route edges="N_in W_out"/>
    </vehicle>

    <vehicle id="flow_8_phase1_S_uturn.0" type="moto" depart="0.00" departLane="0" departPos="120.1072" departSpeed="4.4837" speedFactor="1.0505" arrival="24.00">
        <route edges="S_in S_out"/>
    </vehicle>

    <vehicle id="flow_15_phase1_W_right.0" type="moto" depart="0.00" departLane="1" departPos="153.8984" departSpeed="6.7313" speedFactor="0.8472" arrival="24.00">
        <route edges="N_in N_out"/>
    </vehicle>

    <vehicle id="flow_6_phase1_S_left.0" type="moto" depart="0.00" departLane="1" departPos="166.0107" departSpeed="0.7376" speedFactor="0.8806" arrival="25.00">
        <route edges="S_in W_out"/>
    </vehicle>

    <vehicle id="flow_5_phase1_S_straight.0" type="moto" depart="0.00" departLane="1" departPos="107.3659" departSpeed="7.2113" speedFactor="1.1475" arrival="26.00">
        <route edges="S_in N_out"/>
    </vehicle>

    <vehicle id="flow_14_phase1_W_left.0" type="moto" depart="0.00" departLane="1" departPos="42.3057" departSpeed="3.7077" speedFactor="1.0101" arrival="30.00">
        <route edges="N_in W_out"/>
    </vehicle>

    <vehicle id="flow_2_phase1_N_left.0" type="moto" depart="0.00" departLane="1" departPos="8.2688" departSpeed="8.3291" speedFactor="1.0157" arrival="32.00">
        <route edges="N_in E_out"/>
    </vehicle>

    <vehicle id="flow_3_phase1_N_right.0" type="car" depart="0.00" departLane="0" departPos="103.3842" departSpeed="3.7523" speedFactor="1.0907" arrival="35.00">
        <route edges="W_in E_out"/>
    </vehicle>

    <vehicle id="flow_16_phase1_W_uturn.0" type="moto" depart="0.00" departLane="0" departPos="135.6701" departSpeed="9.6426" speedFactor="1.0383" arrival="35.00">
        <route edges="E_in N_out"/>
    </vehicle>

    <vehicle id="flow_4_phase1_N_uturn.0" type="car" depart="0.00" departLane="1" departPos="127.6015" departSpeed="0.0774" speedFactor="0.9228" arrival="37.00">
        <route edges="W_in S_out"/>
    </vehicle>

    <vehicle id="flow_12_phase1_E_uturn.0" type="moto" depart="0.00" departLane="0" departPos="5.6544" departSpeed="13.7593" speedFactor="1.0348" arrival="38.00">
        <route edges="W_in W_out"/>
    </vehicle>

    <vehicle id="flow_13_phase1_W_straight.1" type="car" depart="14.00" departLane="1" departPos="52.8684" departSpeed="0.4341" speedFactor="1.1218" arrival="41.00">
        <route edges="W_in E_out"/>
    </vehicle>

    <vehicle id="flow_11_phase1_E_right.0" type="bus" depart="0.00" departLane="1" departPos="144.9496" departSpeed="4.0187" speedFactor="0.9581" arrival="42.00">
        <route edges="E_in N_out"/>
    </vehicle>

    <vehicle id="flow_13_phase1_W_straight.0" type="container" depart="0.00" departLane="0" departPos="77.991" departSpeed="3.7887" speedFactor="0.8227" arrival="47.00">
        <route edges="W_in E_out"/>
    </vehicle>

    <vehicle id="flow_5_phase1_S_straight.1" type="moto" depart="14.00" departLane="1" departPos="121.6549" departSpeed="2.9337" speedFactor="1.1853" arrival="49.00">
        <route edges="S_in N_out"/>
    </vehicle>

    <vehicle id="flow_10_phase1_E_left.0" type="truck" depart="0.00" departLane="0" departPos="44.8816" departSpeed="7.6878" speedFactor="1.0161" arrival="52.00">
        <route edges="E_in S_out"/>
    </vehicle>

    <vehicle id="flow_9_phase1_E_straight.1" type="moto" depart="13.00" departLane="1" departPos="58.3562" departSpeed="11.0657" speedFactor="1.1582" arrival="52.00">
        <route edges="N_in W_out"/>
    </vehicle>

    <vehicle id="flow_1_phase1_N_straight.0" type="bus" depart="0.00" departLane="0" departPos="8.6229" departSpeed="8.5053" speedFactor="0.8588" arrival="55.00">
        <route edges="N_in S_out"/>
    </vehicle>

    <vehicle id="flow_1_phase1_N_straight.1" type="moto" depart="14.00" departLane="1" departPos="31.9285" departSpeed="7.0365" speedFactor="0.8727" arrival="55.00">
        <route edges="N_in S_out"/>
    </vehicle>

    <vehicle id="flow_6_phase1_S_left.1" type="moto" depart="34.00" departLane="1" departPos="185.2056" departSpeed="4.3934" speedFactor="1.0453" arrival="56.00">
        <route edges="S_in W_out"/>
    </vehicle>

    <vehicle id="flow_9_phase1_E_straight.2" type="moto" depart="26.00" departLane="1" departPos="12.6982" departSpeed="12.8207" speedFactor="0.9938" arrival="58.00">
        <route edges="N_in W_out"/>
    </vehicle>

    <vehicle id="flow_5_phase1_S_straight.2" type="moto" depart="27.00" departLane="1" departPos="59.5081" departSpeed="13.2726" speedFactor="0.9623" arrival="59.00">
        <route edges="S_in N_out"/>
    </vehicle>

    <vehicle id="flow_11_phase1_E_right.1" type="moto" depart="33.00" departLane="0" departPos="73.8966" departSpeed="8.8622" speedFactor="1.0365" arrival="60.00">
        <route edges="E_in N_out"/>
    </vehicle>

    <vehicle id="flow_15_phase1_W_right.1" type="moto" depart="33.00" departLane="1" departPos="110.9191" departSpeed="12.3791" speedFactor="1.0788" arrival="60.00">
        <route edges="N_in N_out"/>
    </vehicle>

    <vehicle id="flow_3_phase1_N_right.1" type="moto" depart="35.00" departLane="1" departPos="175.3621" departSpeed="7.653" speedFactor="0.8806" arrival="64.00">
        <route edges="W_in E_out"/>
    </vehicle>

    <vehicle id="flow_13_phase1_W_straight.3" type="car" depart="41.00" departLane="0" departPos="167.2268" departSpeed="2.056" speedFactor="1.0479" arrival="64.00">
        <route edges="W_in E_out"/>
    </vehicle>

    <vehicle id="flow_13_phase1_W_straight.2" type="bus" depart="27.00" departLane="1" departPos="107.5311" departSpeed="1.1546" speedFactor="0.9657" arrival="68.00">
        <route edges="W_in E_out"/>
    </vehicle>

    <vehicle id="flow_5_phase1_S_straight.3" type="moto" depart="40.00" departLane="0" departPos="148.0778" departSpeed="9.9021" speedFactor="1.0764" arrival="75.00">
        <route edges="S_in N_out"/>
    </vehicle>

    <vehicle id="flow_1_phase1_N_straight.2" type="moto" depart="28.00" departLane="0" departPos="8.8817" departSpeed="2.3302" speedFactor="0.9279" arrival="76.00">
        <route edges="N_in S_out"/>
    </vehicle>

    <vehicle id="flow_5_phase1_S_straight.4" type="container" depart="53.00" departLane="0" departPos="160.3044" departSpeed="9.1111" speedFactor="0.9706" arrival="76.00">
        <route edges="S_in N_out"/>
    </vehicle>

    <vehicle id="flow_7_phase1_S_right.0" type="container" depart="0.00" departLane="0" departPos="8.759" departSpeed="8.0654" speedFactor="0.8488" arrival="77.00">
        <route edges="E_in E_out"/>
    </vehicle>

    <vehicle id="flow_2_phase1_N_left.1" type="moto" depart="33.00" departLane="1" departPos="66.71" departSpeed="11.2663" speedFactor="1.1228" arrival="79.00">
        <route edges="N_in E_out"/>
    </vehicle>

    <vehicle id="flow_1_phase1_N_straight.3" type="moto" depart="41.00" departLane="1" departPos="23.5668" departSpeed="11.3955" speedFactor="1.2027" arrival="80.00">
        <route edges="N_in S_out"/>
    </vehicle>

    <vehicle id="flow_14_phase1_W_left.1" type="container" depart="35.00" departLane="0" departPos="56.1823" departSpeed="5.4043" speedFactor="0.9146" arrival="84.00">
        <route edges="N_in W_out"/>
    </vehicle>

    <vehicle id="flow_1_phase1_N_straight.4" type="truck" depart="55.00" departLane="1" departPos="111.6918" departSpeed="5.5062" speedFactor="0.9194" arrival="86.00">
        <route edges="N_in S_out"/>
    </vehicle>

    <vehicle id="flow_11_phase1_E_right.2" type="moto" depart="65.00" departLane="0" departPos="155.6805" departSpeed="10.1878" speedFactor="1.1432" arrival="86.00">
        <route edges="E_in N_out"/>
    </vehicle>

    <vehicle id="flow_3_phase1_N_right.2" type="moto" depart="69.00" departLane="1" departPos="152.0111" departSpeed="5.6258" speedFactor="1.1043" arrival="92.00">
        <route edges="W_in E_out"/>
    </vehicle>

    <vehicle id="flow_13_phase1_W_straight.4" type="bus" depart="54.00" departLane="1" departPos="65.3279" departSpeed="10.9259" speedFactor="0.8691" arrival="93.00">
        <route edges="W_in E_out"/>
    </vehicle>

    <vehicle id="flow_4_phase1_N_uturn.1" type="moto" depart="67.00" departLane="1" departPos="174.172" departSpeed="8.5818" speedFactor="0.9374" arrival="93.00">
        <route edges="W_in S_out"/>
    </vehicle>

    <vehicle id="flow_13_phase1_W_straight.5" type="moto" depart="67.00" departLane="0" departPos="87.7633" departSpeed="12.438" speedFactor="1.1413" arrival="95.00">
        <route edges="W_in E_out"/>
    </vehicle>

    <vehicle id="flow_16_phase1_W_uturn.1" type="moto" depart="67.00" departLane="1" departPos="39.3431" departSpeed="4.8067" speedFactor="1.0390" arrival="96.00">
        <route edges="E_in N_out"/>
    </vehicle>

    <vehicle id="flow_5_phase1_S_straight.5" type="moto" depart="67.00" departLane="1" departPos="172.3747" departSpeed="6.9403" speedFactor="1.0265" arrival="101.00">
        <route edges="S_in N_out"/>
    </vehicle>

    <vehicle id="flow_2_phase1_N_left.2" type="emergency" depart="66.00" departLane="1" departPos="2.773" departSpeed="8.3895" speedFactor="1.0989" arrival="102.00">
        <route edges="N_in E_out"/>
    </vehicle>

    <vehicle id="flow_1_phase1_N_straight.5" type="moto" depart="68.00" departLane="0" departPos="137.1078" departSpeed="5.5985" speedFactor="0.9020" arrival="103.00">
        <route edges="N_in S_out"/>
    </vehicle>

    <vehicle id="flow_7_phase1_S_right.1" type="container" depart="33.00" departLane="1" departPos="128.6773" departSpeed="2.3158" speedFactor="0.7845" arrival="105.00">
        <route edges="E_in E_out"/>
    </vehicle>

    <vehicle id="flow_15_phase1_W_right.2" type="moto" depart="66.00" departLane="0" departPos="64.2471" departSpeed="5.8061" speedFactor="0.8882" arrival="105.00">
        <route edges="N_in N_out"/>
    </vehicle>

    <vehicle id="flow_9_phase1_E_straight.3" type="bus" depart="39.00" departLane="0" departPos="19.2493" departSpeed="4.0582" speedFactor="0.8515" arrival="106.00">
        <route edges="N_in W_out"/>
    </vehicle>

    <vehicle id="flow_9_phase1_E_straight.4" type="bus" depart="52.00" departLane="0" departPos="8.0759" departSpeed="6.3554" speedFactor="0.9525" arrival="108.00">
        <route edges="N_in W_out"/>
    </vehicle>

    <vehicle id="flow_6_phase1_S_left.2" type="truck" depart="67.00" departLane="0" departPos="161.4056" departSpeed="1.4182" speedFactor="0.8923" arrival="111.00">
        <route edges="S_in W_out"/>
    </vehicle>

    <vehicle id="flow_8_phase1_S_uturn.1" type="truck" depart="66.00" departLane="0" departPos="91.5182" departSpeed="11.5873" speedFactor="0.9396" arrival="113.00">
        <route edges="S_in S_out"/>
    </vehicle>

    <vehicle id="flow_12_phase1_E_uturn.1" type="moto" depart="66.00" departLane="1" departPos="65.5698" departSpeed="2.2159" speedFactor="0.9517" arrival="114.00">
        <route edges="W_in W_out"/>
    </vehicle>

    <vehicle id="flow_13_phase1_W_straight.6" type="car" depart="81.00" departLane="1" departPos="47.4954" departSpeed="4.3522" speedFactor="0.9759" arrival="115.00">
        <route edges="W_in E_out"/>
    </vehicle>

    <vehicle id="flow_13_phase1_W_straight.7" type="moto" depart="94.00" departLane="0" departPos="107.9927" departSpeed="0.9409" speedFactor="0.8003" arrival="125.00">
        <route edges="W_in E_out"/>
    </vehicle>

    <vehicle id="flow_9_phase1_E_straight.5" type="moto" depart="65.00" departLane="1" departPos="19.5053" departSpeed="7.9407" speedFactor="0.9964" arrival="126.00">
        <route edges="N_in W_out"/>
    </vehicle>

    <vehicle id="flow_5_phase1_S_straight.6" type="moto" depart="80.00" departLane="1" departPos="37.0366" departSpeed="3.4769" speedFactor="1.0983" arrival="128.00">
        <route edges="S_in N_out"/>
    </vehicle>

    <vehicle id="flow_14_phase1_W_left.2" type="car" depart="69.00" departLane="0" departPos="24.5526" departSpeed="7.2302" speedFactor="0.8975" arrival="131.00">
        <route edges="N_in W_out"/>
    </vehicle>

    <vehicle id="flow_10_phase1_E_left.1" type="truck" depart="34.00" departLane="0" departPos="19.8546" departSpeed="3.2255" speedFactor="0.7665" arrival="132.00">
        <route edges="E_in S_out"/>
    </vehicle>

    <vehicle id="flow_9_phase1_E_straight.6" type="moto" depart="78.00" departLane="0" departPos="18.5245" departSpeed="1.6262" speedFactor="1.0203" arrival="132.00">
        <route edges="N_in W_out"/>
    </vehicle>

    <vehicle id="flow_1_phase1_N_straight.6" type="car" depart="82.00" departLane="0" departPos="36.1232" departSpeed="6.3435" speedFactor="0.9797" arrival="132.00">
        <route edges="N_in S_out"/>
    </vehicle>

    <vehicle id="flow_6_phase1_S_left.3" type="car" depart="101.00" departLane="1" departPos="2.2093" departSpeed="8.0575" speedFactor="1.0972" arrival="133.00">
        <route edges="S_in W_out"/>
    </vehicle>

    <vehicle id="flow_9_phase1_E_straight.7" type="moto" depart="91.00" departLane="1" departPos="41.8299" departSpeed="13.187" speedFactor="1.0085" arrival="134.00">
        <route edges="N_in W_out"/>
    </vehicle>

    <vehicle id="flow_5_phase1_S_straight.7" type="bus" depart="93.00" departLane="1" departPos="150.3544" departSpeed="7.1447" speedFactor="0.9040" arrival="134.00">
        <route edges="S_in N_out"/>
    </vehicle>

    <vehicle id="flow_1_phase1_N_straight.7" type="moto" depart="95.00" departLane="0" departPos="140.508" departSpeed="11.0712" speedFactor="1.0626" arrival="134.00">
        <route edges="N_in S_out"/>
    </vehicle>

    <vehicle id="flow_14_phase1_W_left.3" type="moto" depart="104.00" departLane="0" departPos="144.2877" departSpeed="4.5697" speedFactor="1.0873" arrival="135.00">
        <route edges="N_in W_out"/>
    </vehicle>

    <vehicle id="flow_15_phase1_W_right.3" type="moto" depart="99.00" departLane="1" departPos="74.7856" departSpeed="3.0495" speedFactor="1.1705" arrival="136.00">
        <route edges="N_in N_out"/>
    </vehicle>

    <vehicle id="flow_2_phase1_N_left.3" type="moto" depart="99.00" departLane="1" departPos="140.1205" departSpeed="9.784" speedFactor="0.8878" arrival="138.00">
        <route edges="N_in E_out"/>
    </vehicle>

    <vehicle id="flow_13_phase1_W_straight.8" type="moto" depart="108.00" departLane="1" departPos="9.2851" departSpeed="8.3299" speedFactor="1.0413" arrival="140.00">
        <route edges="W_in E_out"/>
    </vehicle>

    <vehicle id="flow_3_phase1_N_right.3" type="moto" depart="103.00" departLane="0" departPos="43.7958" departSpeed="12.2411" speedFactor="0.9618" arrival="141.00">
        <route edges="W_in E_out"/>
    </vehicle>

    <vehicle id="flow_11_phase1_E_right.3" type="moto" depart="98.00" departLane="1" departPos="16.1283" departSpeed="6.8136" speedFactor="0.8330" arrival="142.00">
        <route edges="E_in N_out"/>
    </vehicle>

    <vehicle id="flow_13_phase1_W_straight.9" type="moto" depart="121.00" departLane="1" departPos="133.5146" departSpeed="5.5548" speedFactor="0.8391" arrival="146.00">
        <route edges="W_in E_out"/>
    </vehicle>

    <vehicle id="flow_7_phase1_S_right.2" type="moto" depart="65.00" departLane="1" departPos="129.0888" departSpeed="5.4237" speedFactor="1.0283" arrival="147.00">
        <route edges="E_in E_out"/>
    </vehicle>

    <vehicle id="flow_5_phase1_S_straight.8" type="emergency" depart="106.00" departLane="1" departPos="2.521" departSpeed="4.9017" speedFactor="1.1380" arrival="151.00">
        <route edges="S_in N_out"/>
    </vehicle>

    <vehicle id="flow_5_phase1_S_straight.9" type="moto" depart="120.00" departLane="0" departPos="110.6444" departSpeed="8.7146" speedFactor="1.2976" arrival="152.00">
        <route edges="S_in N_out"/>
    </vehicle>

    <vehicle id="flow_9_phase1_E_straight.8" type="moto" depart="104.00" departLane="0" departPos="50.1096" departSpeed="4.5231" speedFactor="0.9385" arrival="154.00">
        <route edges="N_in W_out"/>
    </vehicle>

    <vehicle id="flow_1_phase1_N_straight.8" type="moto" depart="109.00" departLane="0" departPos="38.2894" departSpeed="0.4261" speedFactor="0.9730" arrival="154.00">
        <route edges="N_in S_out"/>
    </vehicle>

    <vehicle id="flow_1_phase1_N_straight.9" type="truck" depart="122.00" departLane="0" departPos="72.9854" departSpeed="6.4384" speedFactor="0.9670" arrival="159.00">
        <route edges="N_in S_out"/>
    </vehicle>

    <vehicle id="flow_5_phase1_S_straight.10" type="moto" depart="133.00" departLane="0" departPos="45.6162" departSpeed="13.2305" speedFactor="1.0281" arrival="159.00">
        <route edges="S_in N_out"/>
    </vehicle>

    <vehicle id="flow_1_phase1_N_straight.10" type="bus" depart="136.00" departLane="1" departPos="181.5712" departSpeed="0.2355" speedFactor="1.0325" arrival="159.00">
        <route edges="N_in S_out"/>
    </vehicle>

    <vehicle id="flow_9_phase1_E_straight.9" type="truck" depart="116.00" departLane="1" departPos="7.4986" departSpeed="3.9655" speedFactor="1.0019" arrival="160.00">
        <route edges="N_in W_out"/>
    </vehicle>

    <vehicle id="flow_8_phase1_S_uturn.2" type="moto" depart="132.00" departLane="1" departPos="146.8151" departSpeed="12.6418" speedFactor="0.9897" arrival="164.00">
        <route edges="S_in S_out"/>
    </vehicle>

    <vehicle id="flow_4_phase1_N_uturn.2" type="car" depart="133.00" departLane="1" departPos="159.8742" departSpeed="7.5972" speedFactor="1.0323" arrival="165.00">
        <route edges="W_in S_out"/>
    </vehicle>

    <vehicle id="flow_13_phase1_W_straight.10" type="moto" depart="134.00" departLane="1" departPos="149.7816" departSpeed="14.4071" speedFactor="1.1421" arrival="165.00">
        <route edges="W_in E_out"/>
    </vehicle>

    <vehicle id="flow_3_phase1_N_right.4" type="moto" depart="137.00" departLane="0" departPos="14.8665" departSpeed="4.6424" speedFactor="1.0387" arrival="167.00">
        <route edges="W_in E_out"/>
    </vehicle>

    <vehicle id="flow_13_phase1_W_straight.11" type="moto" depart="148.00" departLane="0" departPos="129.443" departSpeed="7.6163" speedFactor="1.0140" arrival="169.00">
        <route edges="W_in E_out"/>
    </vehicle>

    <vehicle id="flow_12_phase1_E_uturn.2" type="bus" depart="132.00" departLane="0" departPos="5.0473" departSpeed="10.3344" speedFactor="0.9315" arrival="171.00">
        <route edges="W_in W_out"/>
    </vehicle>

    <vehicle id="flow_11_phase1_E_right.4" type="container" depart="130.00" departLane="1" departPos="124.2821" departSpeed="3.381" speedFactor="1.0240" arrival="172.00">
        <route edges="E_in N_out"/>
    </vehicle>

    <vehicle id="flow_10_phase1_E_left.2" type="moto" depart="67.00" departLane="1" departPos="92.4194" departSpeed="5.8346" speedFactor="1.0668" arrival="173.00">
        <route edges="E_in S_out"/>
    </vehicle>

    <vehicle id="flow_16_phase1_W_uturn.2" type="car" depart="133.00" departLane="0" departPos="77.131" departSpeed="6.2282" speedFactor="0.8850" arrival="175.00">
        <route edges="E_in N_out"/>
    </vehicle>

    <vehicle id="flow_10_phase1_E_left.3" type="truck" depart="101.00" departLane="1" departPos="171.5609" departSpeed="3.4103" speedFactor="1.0651" arrival="177.00">
        <route edges="E_in S_out"/>
    </vehicle>

    <vehicle id="flow_9_phase1_E_straight.10" type="moto" depart="129.00" departLane="1" departPos="55.6396" departSpeed="13.7679" speedFactor="1.1157" arrival="177.00">
        <route edges="N_in W_out"/>
    </vehicle>

    <vehicle id="flow_6_phase1_S_left.4" type="moto" depart="134.00" departLane="0" departPos="180.9021" departSpeed="4.6479" speedFactor="1.0387" arrival="179.00">
        <route edges="S_in W_out"/>
    </vehicle>

    <vehicle id="flow_9_phase1_E_straight.11" type="moto" depart="142.00" departLane="0" departPos="27.2886" departSpeed="12.4214" speedFactor="1.0448" arrival="180.00">
        <route edges="N_in W_out"/>
    </vehicle>

    <vehicle id="flow_5_phase1_S_straight.11" type="bus" depart="146.00" departLane="1" departPos="47.2903" departSpeed="0.858" speedFactor="0.9784" arrival="180.00">
        <route edges="S_in N_out"/>
    </vehicle>

    <vehicle id="flow_14_phase1_W_left.4" type="bus" depart="138.00" departLane="1" departPos="1.4852" departSpeed="3.975" speedFactor="0.8196" arrival="188.00">
        <route edges="N_in W_out"/>
    </vehicle>

    <vehicle id="flow_13_phase1_W_straight.12" type="moto" depart="161.00" departLane="1" departPos="21.3277" departSpeed="8.0972" speedFactor="1.1365" arrival="188.00">
        <route edges="W_in E_out"/>
    </vehicle>

    <vehicle id="flow_15_phase1_W_right.4" type="bus" depart="132.00" departLane="1" departPos="75.2144" departSpeed="5.8815" speedFactor="0.9032" arrival="192.00">
        <route edges="N_in N_out"/>
    </vehicle>

    <vehicle id="flow_7_phase1_S_right.3" type="moto" depart="98.00" departLane="1" departPos="86.4019" departSpeed="1.7733" speedFactor="1.0682" arrival="194.00">
        <route edges="E_in E_out"/>
    </vehicle>

    <vehicle id="flow_7_phase1_S_right.4" type="moto" depart="130.00" departLane="1" departPos="60.4969" departSpeed="2.8955" speedFactor="0.9645" arrival="197.00">
        <route edges="E_in E_out"/>
    </vehicle>

    <vehicle id="flow_10_phase1_E_left.4" type="moto" depart="134.00" departLane="0" departPos="62.1003" departSpeed="7.9596" speedFactor="1.0039" arrival="198.00">
        <route edges="E_in S_out"/>
    </vehicle>

    <vehicle id="flow_10_phase1_E_left.5" type="moto" depart="168.00" departLane="1" departPos="120.4896" departSpeed="14.9438" speedFactor="1.0856" arrival="200.00">
        <route edges="E_in S_out"/>
    </vehicle>

    <vehicle id="flow_5_phase1_S_straight.12" type="moto" depart="159.00" departLane="0" departPos="28.3376" departSpeed="5.6607" speedFactor="1.0699" arrival="204.00">
        <route edges="S_in N_out"/>
    </vehicle>

    <vehicle id="flow_5_phase1_S_straight.13" type="moto" depart="172.00" departLane="1" departPos="138.898" departSpeed="13.9398" speedFactor="1.2148" arrival="204.00">
        <route edges="S_in N_out"/>
    </vehicle>

    <vehicle id="flow_9_phase1_E_straight.12" type="moto" depart="155.00" departLane="1" departPos="49.5467" departSpeed="12.5648" speedFactor="1.0047" arrival="205.00">
        <route edges="N_in W_out"/>
    </vehicle>

    <vehicle id="flow_9_phase1_E_straight.13" type="moto" depart="168.00" departLane="0" departPos="114.397" departSpeed="12.5255" speedFactor="0.9282" arrival="207.00">
        <route edges="N_in W_out"/>
    </vehicle>

    <vehicle id="flow_2_phase1_N_left.4" type="moto" depart="131.00" departLane="0" departPos="2.1035" departSpeed="14.6691" speedFactor="1.1571" arrival="209.00">
        <route edges="N_in E_out"/>
    </vehicle>

    <vehicle id="flow_1_phase1_N_straight.12" type="truck" depart="163.00" departLane="1" departPos="38.4375" departSpeed="1.0983" speedFactor="0.9615" arrival="212.00">
        <route edges="N_in S_out"/>
    </vehicle>

    <vehicle id="flow_14_phase1_W_left.5" type="bus" depart="173.00" departLane="0" departPos="27.7577" departSpeed="11.2237" speedFactor="0.9554" arrival="215.00">
        <route edges="N_in W_out"/>
    </vehicle>

    <vehicle id="flow_11_phase1_E_right.5" type="moto" depart="163.00" departLane="1" departPos="167.1176" departSpeed="0.9642" speedFactor="1.2552" arrival="216.00">
        <route edges="E_in N_out"/>
    </vehicle>

    <vehicle id="flow_1_phase1_N_straight.11" type="truck" depart="149.00" departLane="1" departPos="41.7947" departSpeed="11.3334" speedFactor="0.9137" arrival="217.00">
        <route edges="N_in S_out"/>
    </vehicle>

    <vehicle id="flow_11_phase1_E_right.6" type="car" depart="195.00" departLane="0" departPos="116.1788" departSpeed="1.7519" speedFactor="0.9838" arrival="220.00">
        <route edges="E_in N_out"/>
    </vehicle>

    <vehicle id="flow_6_phase1_S_left.5" type="bus" depart="168.00" departLane="1" departPos="43.1771" departSpeed="3.236" speedFactor="0.9819" arrival="223.00">
        <route edges="S_in W_out"/>
    </vehicle>

    <vehicle id="flow_12_phase1_E_uturn.3" type="moto" depart="198.00" departLane="1" departPos="181.1813" departSpeed="3.681" speedFactor="1.0747" arrival="225.00">
        <route edges="W_in W_out"/>
    </vehicle>

    <vehicle id="flow_3_phase1_N_right.5" type="moto" depart="171.00" departLane="1" departPos="0.9771" departSpeed="7.757" speedFactor="0.9059" arrival="226.00">
        <route edges="W_in E_out"/>
    </vehicle>

    <vehicle id="flow_13_phase1_W_straight.13" type="moto" depart="174.00" departLane="1" departPos="22.618" departSpeed="0.1774" speedFactor="0.8917" arrival="226.00">
        <route edges="W_in E_out"/>
    </vehicle>

    <vehicle id="flow_13_phase1_W_straight.14" type="moto" depart="188.00" departLane="0" departPos="99.1978" departSpeed="8.3041" speedFactor="1.1523" arrival="227.00">
        <route edges="W_in E_out"/>
    </vehicle>

    <vehicle id="flow_7_phase1_S_right.5" type="truck" depart="163.00" departLane="0" departPos="170.7684" departSpeed="6.1903" speedFactor="1.0532" arrival="231.00">
        <route edges="E_in E_out"/>
    </vehicle>

    <vehicle id="flow_4_phase1_N_uturn.3" type="bus" depart="199.00" departLane="1" departPos="175.2569" departSpeed="3.947" speedFactor="0.9700" arrival="231.00">
        <route edges="W_in S_out"/>
    </vehicle>

    <vehicle id="flow_9_phase1_E_straight.14" type="moto" depart="181.00" departLane="0" departPos="39.6761" departSpeed="0.6229" speedFactor="0.8543" arrival="234.00">
        <route edges="N_in W_out"/>
    </vehicle>

    <vehicle id="flow_5_phase1_S_straight.14" type="car" depart="186.00" departLane="1" departPos="80.4314" departSpeed="9.0929" speedFactor="0.8047" arrival="235.00">
        <route edges="S_in N_out"/>
    </vehicle>

    <vehicle id="flow_1_phase1_N_straight.13" type="truck" depart="176.00" departLane="0" departPos="7.5649" departSpeed="10.6827" speedFactor="0.9465" arrival="236.00">
        <route edges="N_in S_out"/>
    </vehicle>

    <vehicle id="flow_9_phase1_E_straight.15" type="bus" depart="194.00" departLane="0" departPos="15.6422" departSpeed="12.1553" speedFactor="0.8815" arrival="240.00">
        <route edges="N_in W_out"/>
    </vehicle>

    <vehicle id="flow_5_phase1_S_straight.15" type="container" depart="199.00" departLane="0" departPos="79.4706" departSpeed="8.9388" speedFactor="0.9628" arrival="241.00">
        <route edges="S_in N_out"/>
    </vehicle>

    <vehicle id="flow_2_phase1_N_left.5" type="car" depart="164.00" departLane="0" departPos="98.6919" departSpeed="1.4738" speedFactor="0.8868" arrival="245.00">
        <route edges="N_in E_out"/>
    </vehicle>

    <vehicle id="flow_6_phase1_S_left.6" type="bus" depart="201.00" departLane="1" departPos="147.9348" departSpeed="4.1037" speedFactor="1.0167" arrival="245.00">
        <route edges="S_in W_out"/>
    </vehicle>

    <vehicle id="flow_13_phase1_W_straight.15" type="car" depart="201.00" departLane="1" departPos="92.4818" departSpeed="4.3995" speedFactor="1.0262" arrival="246.00">
        <route edges="W_in E_out"/>
    </vehicle>

    <vehicle id="flow_16_phase1_W_uturn.3" type="bus" depart="199.00" departLane="0" departPos="15.5939" departSpeed="7.3126" speedFactor="0.9363" arrival="248.00">
        <route edges="E_in N_out"/>
    </vehicle>

    <vehicle id="flow_11_phase1_E_right.7" type="moto" depart="228.00" departLane="0" departPos="154.9386" departSpeed="13.0822" speedFactor="1.1783" arrival="248.00">
        <route edges="E_in N_out"/>
    </vehicle>

    <vehicle id="flow_3_phase1_N_right.6" type="truck" depart="206.00" departLane="0" departPos="163.9951" departSpeed="5.0078" speedFactor="0.9035" arrival="249.00">
        <route edges="W_in E_out"/>
    </vehicle>

    <vehicle id="flow_13_phase1_W_straight.16" type="truck" depart="215.00" departLane="0" departPos="51.7032" departSpeed="10.8552" speedFactor="0.9269" arrival="251.00">
        <route edges="W_in E_out"/>
    </vehicle>

    <vehicle id="flow_7_phase1_S_right.6" type="car" depart="195.00" departLane="0" departPos="175.8273" departSpeed="1.8761" speedFactor="1.1275" arrival="253.00">
        <route edges="E_in E_out"/>
    </vehicle>

    <vehicle id="flow_5_phase1_S_straight.16" type="moto" depart="212.00" departLane="1" departPos="112.8387" departSpeed="8.1763" speedFactor="1.2172" arrival="256.00">
        <route edges="S_in N_out"/>
    </vehicle>

    <vehicle id="flow_9_phase1_E_straight.16" type="moto" depart="207.00" departLane="0" departPos="139.0541" departSpeed="4.2152" speedFactor="0.8950" arrival="258.00">