<?xml version="1.0" encoding="UTF-8"?>

<!-- generated on 2025-12-08 21:27:29 by Eclipse SUMO sumo Version 1.18.0
<configuration xmlns:xsi="http://www.w3.org/2001/XMLSchema-instance" xsi:noNamespaceSchemaLocation="http://sumo.dlr.de/xsd/sumoConfiguration.xsd">

    <input>
        <net-file value="/workspace/nets/60p2k/net.net.xml"/>
        <route-files value="/workspace/nets/60p2k/route_temp_244_130720908769792_63793894.rou.xml"/>
    </input>

    <output>
        <summary-output value="results/summary_ep_15.xml"/>
        <tripinfo-output value="results/tripinfo_ep_15.xml"/>
        <vehroute-output value="results/vehroute_ep_15.xml"/>
    </output>

    <time>
        <begin value="0"/>
    </time>

    <report>
        <verbose value="true"/>
        <no-step-log value="true"/>
    </report>

    <traci_server>
        <remote-port value="38977"/>
    </traci_server>

    <gui_only>
        <gui-settings-file value="/workspace/nets/60p2k/gui-settings.xml"/>
        <quit-on-end value="true"/>
    </gui_only>

</configuration>
-->

<routes xmlns:xsi="http://www.w3.org/2001/XMLSchema-instance" xsi:noNamespaceSchemaLocation="http://sumo.dlr.de/xsd/routes_file.xsd">
    <vehicle id="flow_3_phase1_N_right.0" type="car" depart="0.00" departLane="0" departPos="103.3842" departSpeed="3.7523" speedFactor="1.0907" arrival="23.00">
        <route edges="N_in S_out"/>
    </vehicle>

    <vehicle id="flow_5_phase1_S_straight.0" type="moto" depart="0.00" departLane="1" departPos="107.3659" departSpeed="7.2113" speedFactor="1.1475" arrival="25.00">
        <route edges="S_in N_out"/>
    </vehicle>

    <vehicle id="flow_9_phase1_E_straight.0" type="truck" depart="0.00" departLane="0" departPos="168.2937" departSpeed="9.8263" speedFactor="0.8990" arrival="30.00">
        <route edges="S_in S_out"/>
    </vehicle>

    <vehicle id="flow_14_phase1_W_left.0" type="moto" depart="0.00" departLane="1" departPos="42.3057" departSpeed="3.7077" speedFactor="1.0101" arrival="30.00">
        <route edges="S_in E_out"/>
    </vehicle>

    <vehicle id="flow_6_phase1_S_left.0" type="moto" depart="0.00" departLane="1" departPos="166.0107" departSpeed="0.7376" speedFactor="0.8806" arrival="33.00">
        <route edges="S_in W_out"/>
    </vehicle>

    <vehicle id="flow_16_phase1_W_uturn.0" type="moto" depart="0.00" departLane="1" departPos="135.6701" departSpeed="1.2848" speedFactor="1.0383" arrival="35.00">
        <route edges="W_in W_out"/>
    </vehicle>

    <vehicle id="flow_4_phase1_N_uturn.0" type="car" depart="0.00" departLane="1" departPos="127.6015" departSpeed="0.0774" speedFactor="0.9228" arrival="38.00">
        <route edges="W_in E_out"/>
    </vehicle>

    <vehicle id="flow_11_phase1_E_right.0" type="bus" depart="0.00" departLane="1" departPos="144.9496" departSpeed="4.0187" speedFactor="0.9581" arrival="40.00">
        <route edges="E_in N_out"/>
    </vehicle>

    <vehicle id="flow_15_phase1_W_right.0" type="moto" depart="0.00" departLane="1" departPos="45.7673" departSpeed="6.7313" speedFactor="0.8472" arrival="41.00">
        <route edges="W_in W_out"/>
    </vehicle>

    <vehicle id="flow_1_phase1_N_straight.0" type="bus" depart="0.00" departLane="0" departPos="8.6229" departSpeed="8.5053" speedFactor="0.8588" arrival="46.00">
        <route edges="W_in W_out"/>
    </vehicle>

    <vehicle id="flow_13_phase1_W_straight.0" type="container" depart="0.00" departLane="0" departPos="77.991" departSpeed="3.7887" speedFactor="0.8227" arrival="48.00">
        <route edges="W_in E_out"/>
    </vehicle>

    <vehicle id="flow_10_phase1_E_left.0" type="truck" depart="0.00" departLane="0" departPos="44.8816" departSpeed="7.6878" speedFactor="1.0161" arrival="53.00">
        <route edges="E_in S_out"/>
    </vehicle>

    <vehicle id="flow_8_phase1_S_uturn.0" type="moto" depart="0.00" departLane="0" departPos="120.1072" departSpeed="4.4837" speedFactor="1.0505" arrival="55.00">
        <route edges="S_in S_out"/>
    </vehicle>

    <vehicle id="flow_9_phase1_E_straight.1" type="moto" depart="13.00" departLane="1" departPos="177.286" departSpeed="4.6104" speedFactor="1.1582" arrival="56.00">
        <route edges="S_in S_out"/>
    </vehicle>

    <vehicle id="flow_7_phase1_S_right.0" type="container" depart="0.00" departLane="0" departPos="8.759" departSpeed="8.0654" speedFactor="0.8488" arrival="57.00">
        <route edges="S_in E_out"/>
    </vehicle>

    <vehicle id="flow_13_phase1_W_straight.1" type="car" depart="14.00" departLane="0" departPos="5.2781" departSpeed="2.3675" speedFactor="1.1218" arrival="61.00">
        <route edges="W_in E_out"/>
    </vehicle>

    <vehicle id="flow_11_phase1_E_right.1" type="moto" depart="33.00" departLane="1" departPos="97.231" departSpeed="5.6153" speedFactor="1.0365" arrival="61.00">
        <route edges="E_in N_out"/>
    </vehicle>

    <vehicle id="flow_12_phase1_E_uturn.0" type="moto" depart="0.00" departLane="0" departPos="5.6544" departSpeed="13.7593" speedFactor="1.0348" arrival="62.00">
        <route edges="E_in E_out"/>
    </vehicle>

    <vehicle id="flow_1_phase1_N_straight.1" type="moto" depart="14.00" departLane="0" departPos="93.3916" departSpeed="3.7336" speedFactor="0.8727" arrival="64.00">
        <route edges="W_in W_out"/>
    </vehicle>

    <vehicle id="flow_13_phase1_W_straight.2" type="bus" depart="27.00" departLane="1" departPos="107.5311" departSpeed="1.1546" speedFactor="0.9657" arrival="67.00">
        <route edges="W_in E_out"/>
    </vehicle>

    <vehicle id="flow_1_phase1_N_straight.3" type="moto" depart="41.00" departLane="0" departPos="148.0778" departSpeed="10.5891" speedFactor="1.2027" arrival="67.00">
        <route edges="W_in W_out"/>
    </vehicle>

    <vehicle id="flow_15_phase1_W_right.1" type="moto" depart="33.00" departLane="1" departPos="79.0964" departSpeed="8.7725" speedFactor="1.0788" arrival="69.00">
        <route edges="W_in W_out"/>
    </vehicle>

    <vehicle id="flow_2_phase1_N_left.0" type="moto" depart="0.00" departLane="1" departPos="8.2688" departSpeed="8.3291" speedFactor="1.0157" arrival="71.00">
        <route edges="E_in E_out"/>
    </vehicle>

    <vehicle id="flow_5_phase1_S_straight.1" type="moto" depart="14.00" departLane="1" departPos="34.7646" departSpeed="2.6944" speedFactor="1.1853" arrival="73.00">
        <route edges="S_in N_out"/>
    </vehicle>

    <vehicle id="flow_5_phase1_S_straight.2" type="moto" depart="27.00" departLane="1" departPos="59.5081" departSpeed="13.2726" speedFactor="0.9623" arrival="75.00">
        <route edges="S_in N_out"/>
    </vehicle>

    <vehicle id="flow_9_phase1_E_straight.2" type="moto" depart="26.00" departLane="1" departPos="12.6982" departSpeed="7.553" speedFactor="0.9938" arrival="76.00">
        <route edges="S_in S_out"/>
    </vehicle>

    <vehicle id="flow_3_phase1_N_right.1" type="moto" depart="35.00" departLane="0" departPos="93.4122" departSpeed="11.3212" speedFactor="0.8806" arrival="77.00">
        <route edges="N_in S_out"/>
    </vehicle>

    <vehicle id="flow_6_phase1_S_left.1" type="moto" depart="34.00" departLane="0" departPos="4.5211" departSpeed="14.1929" speedFactor="1.0453" arrival="78.00">
        <route edges="S_in W_out"/>
    </vehicle>

    <vehicle id="flow_14_phase1_W_left.1" type="container" depart="35.00" departLane="0" departPos="86.4153" departSpeed="9.0357" speedFactor="0.9146" arrival="85.00">
        <route edges="S_in E_out"/>
    </vehicle>

    <vehicle id="flow_9_phase1_E_straight.3" type="bus" depart="39.00" departLane="0" departPos="56.1823" departSpeed="6.7897" speedFactor="0.8515" arrival="86.00">
        <route edges="S_in S_out"/>
    </vehicle>

    <vehicle id="flow_13_phase1_W_straight.3" type="car" depart="41.00" departLane="1" departPos="23.5668" departSpeed="10.374" speedFactor="1.0479" arrival="88.00">
        <route edges="W_in E_out"/>
    </vehicle>

    <vehicle id="flow_1_phase1_N_straight.2" type="moto" depart="28.00" departLane="0" departPos="8.8817" departSpeed="2.3302" speedFactor="0.9279" arrival="89.00">
        <route edges="W_in W_out"/>
    </vehicle>

    <vehicle id="flow_13_phase1_W_straight.5" type="moto" depart="67.00" departLane="0" departPos="63.1043" departSpeed="13.3841" speedFactor="1.1413" arrival="90.00">
        <route edges="W_in E_out"/>
    </vehicle>

    <vehicle id="flow_1_phase1_N_straight.4" type="truck" depart="55.00" departLane="0" departPos="125.7621" departSpeed="4.4033" speedFactor="0.9194" arrival="94.00">
        <route edges="W_in W_out"/>
    </vehicle>

    <vehicle id="flow_13_phase1_W_straight.4" type="bus" depart="54.00" departLane="1" departPos="29.1154" departSpeed="10.2139" speedFactor="0.8691" arrival="98.00">
        <route edges="W_in E_out"/>
    </vehicle>

    <vehicle id="flow_3_phase1_N_right.2" type="moto" depart="69.00" departLane="1" departPos="109.8853" departSpeed="2.4194" speedFactor="1.1043" arrival="100.00">
        <route edges="N_in S_out"/>
    </vehicle>

    <vehicle id="flow_5_phase1_S_straight.3" type="moto" depart="40.00" departLane="0" departPos="19.2493" departSpeed="5.13" speedFactor="1.0764" arrival="103.00">
        <route edges="S_in N_out"/>
    </vehicle>

    <vehicle id="flow_10_phase1_E_left.1" type="truck" depart="34.00" departLane="0" departPos="166.0021" departSpeed="1.1157" speedFactor="0.7665" arrival="107.00">
        <route edges="E_in S_out"/>
    </vehicle>

    <vehicle id="flow_7_phase1_S_right.2" type="moto" depart="65.00" departLane="0" departPos="52.573" departSpeed="8.4201" speedFactor="1.0283" arrival="108.00">
        <route edges="S_in E_out"/>
    </vehicle>

    <vehicle id="flow_7_phase1_S_right.1" type="container" depart="33.00" departLane="1" departPos="80.2425" departSpeed="2.3158" speedFactor="0.7845" arrival="111.00">
        <route edges="S_in E_out"/>
    </vehicle>

    <vehicle id="flow_5_phase1_S_straight.4" type="container" depart="53.00" departLane="1" departPos="128.0429" departSpeed="0.5747" speedFactor="0.9706" arrival="111.00">
        <route edges="S_in N_out"/>
    </vehicle>

    <vehicle id="flow_11_phase1_E_right.2" type="moto" depart="65.00" departLane="1" departPos="162.4039" departSpeed="1.6348" speedFactor="1.1432" arrival="112.00">
        <route edges="E_in N_out"/>
    </vehicle>

    <vehicle id="flow_2_phase1_N_left.2" type="emergency" depart="66.00" departLane="0" departPos="179.131" departSpeed="7.734" speedFactor="1.0989" arrival="112.00">
        <route edges="E_in E_out"/>
    </vehicle>

    <vehicle id="flow_2_phase1_N_left.1" type="moto" depart="33.00" departLane="1" departPos="66.71" departSpeed="11.2663" speedFactor="1.1228" arrival="114.00">
        <route edges="E_in E_out"/>
    </vehicle>

    <vehicle id="flow_15_phase1_W_right.2" type="moto" depart="66.00" departLane="0" departPos="64.2471" departSpeed="5.8061" speedFactor="0.8882" arrival="116.00">
        <route edges="W_in W_out"/>
    </vehicle>

    <vehicle id="flow_1_phase1_N_straight.5" type="moto" depart="68.00" departLane="0" departPos="69.4902" departSpeed="5.5743" speedFactor="0.9020" arrival="118.00">
        <route edges="W_in W_out"/>
    </vehicle>

    <vehicle id="flow_16_phase1_W_uturn.1" type="moto" depart="67.00" departLane="1" departPos="61.3216" departSpeed="2.2146" speedFactor="1.0390" arrival="119.00">
        <route edges="W_in W_out"/>
    </vehicle>

    <vehicle id="flow_4_phase1_N_uturn.1" type="moto" depart="67.00" departLane="1" departPos="2.2119" departSpeed="8.5818" speedFactor="0.9374" arrival="121.00">
        <route edges="W_in E_out"/>
    </vehicle>

    <vehicle id="flow_11_phase1_E_right.3" type="moto" depart="98.00" departLane="0" departPos="150.3232" departSpeed="4.982" speedFactor="0.8330" arrival="124.00">
        <route edges="E_in N_out"/>
    </vehicle>

    <vehicle id="flow_10_phase1_E_left.2" type="moto" depart="67.00" departLane="1" departPos="148.6531" departSpeed="7.2281" speedFactor="1.0668" arrival="125.00">
        <route edges="E_in S_out"/>
    </vehicle>

    <vehicle id="flow_13_phase1_W_straight.7" type="moto" depart="94.00" departLane="1" departPos="142.1182" departSpeed="0.3852" speedFactor="0.8003" arrival="126.00">
        <route edges="W_in E_out"/>
    </vehicle>

    <vehicle id="flow_12_phase1_E_uturn.1" type="moto" depart="66.00" departLane="1" departPos="65.5698" departSpeed="2.2159" speedFactor="0.9517" arrival="127.00">
        <route edges="E_in E_out"/>
    </vehicle>

    <vehicle id="flow_5_phase1_S_straight.5" type="moto" depart="67.00" departLane="0" departPos="21.6793" departSpeed="12.9721" speedFactor="1.0265" arrival="127.00">
        <route edges="S_in N_out"/>
    </vehicle>

    <vehicle id="flow_5_phase1_S_straight.6" type="moto" depart="80.00" departLane="0" departPos="60.8307" departSpeed="14.0383" speedFactor="1.0983" arrival="129.00">
        <route edges="S_in N_out"/>
    </vehicle>

    <vehicle id="flow_14_phase1_W_left.2" type="car" depart="69.00" departLane="1" departPos="21.7404" departSpeed="9.8495" speedFactor="0.8975" arrival="130.00">
        <route edges="S_in E_out"/>
    </vehicle>

    <vehicle id="flow_7_phase1_S_right.3" type="moto" depart="98.00" departLane="1" departPos="111.5719" departSpeed="0.1089" speedFactor="1.0682" arrival="132.00">
        <route edges="S_in E_out"/>
    </vehicle>

    <vehicle id="flow_3_phase1_N_right.3" type="moto" depart="103.00" departLane="0" departPos="35.6434" departSpeed="3.0881" speedFactor="0.9618" arrival="134.00">
        <route edges="N_in S_out"/>
    </vehicle>

    <vehicle id="flow_5_phase1_S_straight.7" type="bus" depart="93.00" departLane="0" departPos="16.037" departSpeed="5.068" speedFactor="0.9040" arrival="137.00">
        <route edges="S_in N_out"/>
    </vehicle>

    <vehicle id="flow_1_phase1_N_straight.7" type="moto" depart="95.00" departLane="1" departPos="22.6438" departSpeed="9.8385" speedFactor="1.0626" arrival="139.00">
        <route edges="W_in W_out"/>
    </vehicle>

    <vehicle id="flow_9_phase1_E_straight.4" type="bus" depart="52.00" departLane="0" departPos="70.4575" departSpeed="1.8689" speedFactor="0.9525" arrival="140.00">
        <route edges="S_in S_out"/>
    </vehicle>

    <vehicle id="flow_15_phase1_W_right.3" type="moto" depart="99.00" departLane="1" departPos="20.793" departSpeed="6.311" speedFactor="1.1705" arrival="140.00">
        <route edges="W_in W_out"/>
    </vehicle>

    <vehicle id="flow_2_phase1_N_left.3" type="moto" depart="99.00" departLane="0" departPos="36.1365" departSpeed="7.4603" speedFactor="0.8878" arrival="142.00">
        <route edges="E_in E_out"/>
    </vehicle>

    <vehicle id="flow_13_phase1_W_straight.6" type="car" depart="81.00" departLane="1" departPos="88.3207" departSpeed="11.5407" speedFactor="0.9759" arrival="145.00">
        <route edges="W_in E_out"/>
    </vehicle>

    <vehicle id="flow_1_phase1_N_straight.6" type="car" depart="82.00" departLane="0" departPos="178.3578" departSpeed="3.2467" speedFactor="0.9797" arrival="145.00">
        <route edges="W_in W_out"/>
    </vehicle>

    <vehicle id="flow_13_phase1_W_straight.8" type="moto" depart="108.00" departLane="1" departPos="9.2851" departSpeed="8.3299" speedFactor="1.0413" arrival="148.00">
        <route edges="W_in E_out"/>
    </vehicle>

    <vehicle id="flow_1_phase1_N_straight.8" type="moto" depart="109.00" departLane="0" departPos="174.1059" departSpeed="0.4261" speedFactor="0.9730" arrival="148.00">
        <route edges="W_in W_out"/>
    </vehicle>

    <vehicle id="flow_14_phase1_W_left.3" type="moto" depart="104.00" departLane="0" departPos="58.7528" departSpeed="11.5015" speedFactor="1.0873" arrival="151.00">
        <route edges="S_in E_out"/>
    </vehicle>

    <vehicle id="flow_11_phase1_E_right.4" type="container" depart="130.00" departLane="0" departPos="169.4272" departSpeed="13.8364" speedFactor="1.0240" arrival="151.00">
        <route edges="E_in N_out"/>
    </vehicle>

    <vehicle id="flow_5_phase1_S_straight.8" type="emergency" depart="106.00" departLane="0" departPos="2.521" departSpeed="5.7821" speedFactor="1.1380" arrival="154.00">
        <route edges="S_in N_out"/>
    </vehicle>

    <vehicle id="flow_10_phase1_E_left.3" type="truck" depart="101.00" departLane="0" departPos="42.0768" departSpeed="8.079" speedFactor="1.0651" arrival="156.00">
        <route edges="E_in S_out"/>
    </vehicle>

    <vehicle id="flow_5_phase1_S_straight.9" type="moto" depart="120.00" departLane="1" departPos="103.2677" departSpeed="12.7199" speedFactor="1.2976" arrival="156.00">
        <route edges="S_in N_out"/>
    </vehicle>

    <vehicle id="flow_3_phase1_N_right.4" type="moto" depart="137.00" departLane="0" departPos="161.6079" departSpeed="1.1321" speedFactor="1.0387" arrival="158.00">
        <route edges="N_in S_out"/>
    </vehicle>

    <vehicle id="flow_9_phase1_E_straight.5" type="moto" depart="65.00" departLane="1" departPos="112.3734" departSpeed="9.4297" speedFactor="0.9964" arrival="160.00">
        <route edges="S_in S_out"/>
    </vehicle>

    <vehicle id="flow_7_phase1_S_right.4" type="moto" depart="130.00" departLane="1" departPos="123.8246" departSpeed="2.8955" speedFactor="0.9645" arrival="160.00">
        <route edges="S_in E_out"/>
    </vehicle>

    <vehicle id="flow_5_phase1_S_straight.10" type="moto" depart="133.00" departLane="0" departPos="123.2337" departSpeed="11.9585" speedFactor="1.0281" arrival="160.00">
        <route edges="S_in N_out"/>
    </vehicle>

    <vehicle id="flow_1_phase1_N_straight.9" type="truck" depart="122.00" departLane="1" departPos="90.8186" departSpeed="4.4815" speedFactor="0.9670" arrival="168.00">
        <route edges="W_in W_out"/>
    </vehicle>

    <vehicle id="flow_13_phase1_W_straight.9" type="moto" depart="121.00" departLane="1" departPos="90.2975" departSpeed="5.9126" speedFactor="0.8391" arrival="169.00">
        <route edges="W_in E_out"/>
    </vehicle>

    <vehicle id="flow_2_phase1_N_left.4" type="moto" depart="131.00" departLane="1" departPos="173.8291" departSpeed="0.7762" speedFactor="1.1571" arrival="170.00">
        <route edges="E_in E_out"/>
    </vehicle>

    <vehicle id="flow_4_phase1_N_uturn.2" type="car" depart="133.00" departLane="0" departPos="34.8311" departSpeed="5.6922" speedFactor="1.0323" arrival="170.00">
        <route edges="W_in E_out"/>
    </vehicle>

    <vehicle id="flow_13_phase1_W_straight.10" type="moto" depart="134.00" departLane="0" departPos="3.1111" departSpeed="9.5931" speedFactor="1.1421" arrival="172.00">
        <route edges="W_in E_out"/>
    </vehicle>

    <vehicle id="flow_1_phase1_N_straight.10" type="bus" depart="136.00" departLane="1" departPos="168.8768" departSpeed="6.0384" speedFactor="1.0325" arrival="172.00">
        <route edges="W_in W_out"/>
    </vehicle>

    <vehicle id="flow_10_phase1_E_left.4" type="moto" depart="134.00" departLane="0" departPos="172.0661" departSpeed="10.3443" speedFactor="1.0039" arrival="176.00">
        <route edges="E_in S_out"/>
    </vehicle>

    <vehicle id="flow_8_phase1_S_uturn.1" type="truck" depart="66.00" departLane="0" departPos="91.5182" departSpeed="0.191" speedFactor="0.9396" arrival="182.00">
        <route edges="S_in S_out"/>
    </vehicle>

    <vehicle id="flow_6_phase1_S_left.2" type="truck" depart="67.00" departLane="1" departPos="74.602" departSpeed="5.4407" speedFactor="0.8923" arrival="186.00">
        <route edges="S_in W_out"/>
    </vehicle>

    <vehicle id="flow_9_phase1_E_straight.11" type="moto" depart="142.00" departLane="0" departPos="129.443" departSpeed="7.8476" speedFactor="1.0448" arrival="187.00">
        <route edges="S_in S_out"/>
    </vehicle>

    <vehicle id="flow_11_phase1_E_right.5" type="moto" depart="163.00" departLane="1" departPos="161.9597" departSpeed="5.7422" speedFactor="1.2552" arrival="190.00">
        <route edges="E_in N_out"/>
    </vehicle>

    <vehicle id="flow_13_phase1_W_straight.11" type="moto" depart="148.00" departLane="1" departPos="113.0073" departSpeed="12.6811" speedFactor="1.0140" arrival="192.00">
        <route edges="W_in E_out"/>
    </vehicle>

    <vehicle id="flow_13_phase1_W_straight.12" type="moto" depart="161.00" departLane="0" departPos="158.7036" departSpeed="3.2026" speedFactor="1.1365" arrival="193.00">
        <route edges="W_in E_out"/>
    </vehicle>

    <vehicle id="flow_15_phase1_W_right.4" type="bus" depart="132.00" departLane="0" departPos="109.2982" departSpeed="0.3342" speedFactor="0.9032" arrival="196.00">
        <route edges="W_in W_out"/>
    </vehicle>

    <vehicle id="flow_13_phase1_W_straight.13" type="moto" depart="174.00" departLane="0" departPos="180.2387" departSpeed="0.6501" speedFactor="0.8917" arrival="197.00">
        <route edges="W_in E_out"/>
    </vehicle>

    <vehicle id="flow_12_phase1_E_uturn.2" type="bus" depart="132.00" departLane="1" departPos="140.3456" departSpeed="10.0261" speedFactor="0.9315" arrival="200.00">
        <route edges="E_in E_out"/>
    </vehicle>

    <vehicle id="flow_16_phase1_W_uturn.2" type="car" depart="133.00" departLane="1" departPos="95.9942" departSpeed="2.9596" speedFactor="0.8850" arrival="200.00">
        <route edges="W_in W_out"/>
    </vehicle>

    <vehicle id="flow_10_phase1_E_left.5" type="moto" depart="168.00" departLane="1" departPos="138.898" departSpeed="13.1468" speedFactor="1.0856" arrival="200.00">
        <route edges="E_in S_out"/>
    </vehicle>

    <vehicle id="flow_1_phase1_N_straight.11" type="truck" depart="149.00" departLane="0" departPos="72.1694" departSpeed="8.6237" speedFactor="0.9137" arrival="205.00">
        <route edges="W_in W_out"/>
    </vehicle>

    <vehicle id="flow_2_phase1_N_left.5" type="car" depart="164.00" departLane="0" departPos="44.9537" departSpeed="5.2975" speedFactor="0.8868" arrival="207.00">
        <route edges="E_in E_out"/>
    </vehicle>

    <vehicle id="flow_1_phase1_N_straight.13" type="truck" depart="176.00" departLane="0" departPos="142.3358" departSpeed="8.8669" speedFactor="0.9465" arrival="208.00">
        <route edges="W_in W_out"/>
    </vehicle>

    <vehicle id="flow_15_phase1_W_right.5" type="car" depart="165.00" departLane="0" departPos="114.397" departSpeed="12.5501" speedFactor="0.9653" arrival="211.00">
        <route edges="W_in W_out"/>
    </vehicle>

    <vehicle id="flow_13_phase1_W_straight.14" type="moto" depart="188.00" departLane="1" departPos="80.6527" departSpeed="2.4021" speedFactor="1.1523" arrival="215.00">
        <route edges="W_in E_out"/>
    </vehicle>

    <vehicle id="flow_1_phase1_N_straight.12" type="truck" depart="163.00" departLane="1" departPos="11.4261" departSpeed="12.0374" speedFactor="0.9615" arrival="217.00">
        <route edges="W_in W_out"/>
    </vehicle>

    <vehicle id="flow_4_phase1_N_uturn.3" type="bus" depart="199.00" departLane="0" departPos="182.8634" departSpeed="7.5758" speedFactor="0.9700" arrival="217.00">
        <route edges="W_in E_out"/>
    </vehicle>

    <vehicle id="flow_1_phase1_N_straight.14" type="car" depart="190.00" departLane="0" departPos="15.6422" departSpeed="13.4005" speedFactor="0.9718" arrival="224.00">
        <route edges="W_in W_out"/>
    </vehicle>

    <vehicle id="flow_11_phase1_E_right.6" type="car" depart="195.00" departLane="1" departPos="20.6867" departSpeed="11.0861" speedFactor="0.9838" arrival="226.00">
        <route edges="E_in N_out"/>
    </vehicle>

    <vehicle id="flow_15_phase1_W_right.6" type="car" depart="198.00" departLane="0" departPos="79.4706" departSpeed="8.8748" speedFactor="0.9559" arrival="228.00">
        <route edges="W_in W_out"/>
    </vehicle>

    <vehicle id="flow_12_phase1_E_uturn.3" type="moto" depart="198.00" departLane="1" departPos="175.2569" departSpeed="4.9854" speedFactor="1.0747" arrival="229.00">
        <route edges="E_in E_out"/>
    </vehicle>

    <vehicle id="flow_1_phase1_N_straight.15" type="car" depart="203.00" departLane="0" departPos="121.3489" departSpeed="7.2592" speedFactor="0.9311" arrival="232.00">
        <route edges="W_in W_out"/>
    </vehicle>

    <vehicle id="flow_9_phase1_E_straight.6" type="moto" depart="78.00" departLane="0" departPos="43.1808" departSpeed="3.2049" speedFactor="1.0203" arrival="235.00">
        <route edges="S_in S_out"/>
    </vehicle>

    <vehicle id="flow_3_phase1_N_right.5" type="moto" depart="171.00" departLane="0" departPos="27.7577" departSpeed="10.6422" speedFactor="0.9059" arrival="237.00">
        <route edges="N_in S_out"/>
    </vehicle>

    <vehicle id="flow_3_phase1_N_right.6" type="truck" depart="206.00" departLane="1" departPos="26.1165" departSpeed="8.6786" speedFactor="0.9035" arrival="238.00">
        <route edges="N_in S_out"/>
    </vehicle>

    <vehicle id="flow_14_phase1_W_left.4" type="bus" depart="138.00" departLane="1" departPos="47.2903" departSpeed="0.0892" speedFactor="0.8196" arrival="240.00">
        <route edges="S_in E_out"/>
    </vehicle>

    <vehicle id="flow_9_phase1_E_straight.7" type="moto" depart="91.00" departLane="1" departPos="107.805" departSpeed="10.9722" speedFactor="1.0085" arrival="241.00">
        <route edges="S_in S_out"/>
    </vehicle>

    <vehicle id="flow_6_phase1_S_left.3" type="car" depart="101.00" departLane="1" departPos="109.812" departSpeed="0.1777" speedFactor="1.0972" arrival="242.00">
        <route edges="S_in W_out"/>
    </vehicle>

    <vehicle id="flow_5_phase1_S_straight.11" type="bus" depart="146.00" departLane="1" departPos="41.7947" departSpeed="12.1359" speedFactor="0.9784" arrival="242.00">
        <route edges="S_in N_out"/>
    </vehicle>

    <vehicle id="flow_13_phase1_W_straight.15" type="car" depart="201.00" departLane="1" departPos="51.7032" departSpeed="11.8768" speedFactor="1.0262" arrival="248.00">
        <route edges="W_in E_out"/>
    </vehicle>

    <vehicle id="flow_2_phase1_N_left.6" type="moto" depart="197.00" departLane="1" departPos="36.0857" departSpeed="3.3262" speedFactor="0.8416" arrival="251.00">
        <route edges="E_in E_out"/>
    </vehicle>

    <vehicle id="flow_16_phase1_W_uturn.3" type="bus" depart="199.00" departLane="1" departPos="75.6038" departSpeed="7.7426" speedFactor="0.9363" arrival="251.00">
        <route edges="W_in W_out"/>
    </vehicle>

    <vehicle id="flow_1_phase1_N_straight.16" type="moto" depart="217.00" departLane="0" departPos="71.4623" departSpeed="8.2383" speedFactor="1.0821" arrival="253.00">
        <route edges="W_in W_out"/>
    </vehicle>

    <vehicle id="flow_13_phase1_W_straight.16" type="truck" depart="215.00" departLane="1" departPos="154.8347" departSpeed="8.1113" speedFactor="0.9269" arrival="254.00">
        <route edges="W_in E_out"/>
    </vehicle>

    <vehicle id="flow_13_phase1_W_straight.17" type="truck" depart="228.00" departLane="0" departPos="141.6365" departSpeed="8.9023" speedFactor="0.8482" arrival="258.00">
        <route edges="W_in E_out"/>
    </vehicle>

    <vehicle id="flow_5_phase1_S_straight.12" type="moto" depart="159.00" departLane="0" departPos="15.88" departSpeed="1.6729" speedFactor="1.0699" arrival="265.00">
        <route edges="S_in N_out"/>
    </vehicle>

    <vehicle id="flow_10_phase1_E_left.6" type="bus" depart="201.00" departLane="1" departPos="37.6432" departSpeed="6.5366" speedFactor="0.9234" arrival="266.00">
        <route edges="E_in S_out"/>
    </vehicle>

    <vehicle id="flow_3_phase1_N_right.7" type="moto" depart="240.00" departLane="0" departPos="92.0756" departSpeed="2.8113" speedFactor="0.9544" arrival="266.00">
        <route edges="N_in S_out"/>
    </vehicle>

    <vehicle id="flow_9_phase1_E_straight.8" type="moto" depart="104.00" departLane="1" departPos="84.7431" departSpeed="3.4477" speedFactor="0.9385" arrival="269.00">
        <route edges="S_in S_out"/>
    </vehicle>

    <vehicle id="flow_7_phase1_S_right.5" type="truck" depart="163.00" departLane="0" departPos="22.6696" departSpeed="7.7669" speedFactor="1.0532" arrival="269.00">
        <route edges="S_in E_out"/>
    </vehicle>

    <vehicle id="flow_11_phase1_E_right.7" type="moto" depart="228.00" departLane="0" departPos="25.1596" departSpeed="2.0796" speedFactor="1.1783" arrival="272.00">
        <route edges="E_in N_out"/>
    </vehicle>

    <vehicle id="flow_13_phase1_W_straight.18" type="moto" depart="241.00" departLane="1" departPos="99.8631" departSpeed="3.4992" speedFactor="1.0628" arrival="273.00">
        <route edges="W_in E_out"/>
    </vehicle>

    <vehicle id="flow_1_phase1_N_straight.17" type="moto" depart="230.00" departLane="0" departPos="45.1448" departSpeed="7.8277" speedFactor="0.7932" arrival="278.00">
        <route edges="W_in W_out"/>
    </vehicle>

    <vehicle id="flow_15_phase1_W_right.7" type="moto" depart="230.00" departLane="1" departPos="2.3297" departSpeed="6.7748" speedFactor="0.8417" arrival="279.00">
        <route edges="W_in W_out"/>
    </vehicle>

    <vehicle id="flow_1_phase1_N_straight.18" type="moto" depart="244.00" departLane="0" departPos="130.2821" departSpeed="9.071" speedFactor="1.2029" arrival="280.00">
        <route edges="W_in W_out"/>
    </vehicle>

    <vehicle id="flow_13_phase1_W_straight.19" type="moto" depart="255.00" departLane="1" departPos="176.9299" departSpeed="2.9658" speedFactor="0.9628" arrival="280.00">
        <route edges="W_in E_out"/>
    </vehicle>

    <vehicle id="flow_2_phase1_N_left.7" type="car" depart="229.00" departLane="1" departPos="20.663" departSpeed="8.9112" speedFactor="1.0423" arrival="284.00">
        <route edges="E_in E_out"/>
    </vehicle>

    <vehicle id="flow_10_phase1_E_left.7" type="moto" depart="235.00" departLane="1" departPos="137.053" departSpeed="10.4639" speedFactor="1.0262" arrival="284.00">
        <route edges="E_in S_out"/>
    </vehicle>

    <vehicle id="flow_1_phase1_N_straight.19" type="bus" depart="257.00" departLane="0" departPos="172.8526" departSpeed="8.5821" speedFactor="0.9610" arrival="285.00">
        <route edges="W_in W_out"/>