<?xml version="1.0" encoding="UTF-8"?>

<!-- generated on 2025-12-21 11:17:56 by Eclipse SUMO GUI Version 1.24.0
<sumoConfiguration xmlns:xsi="http://www.w3.org/2001/XMLSchema-instance" xsi:noNamespaceSchemaLocation="http://sumo.dlr.de/xsd/sumoConfiguration.xsd">

    <input>
        <net-file value="c:\Users\thang\Downloads\TRAFFIC-LLIRL\nets\demo\net.net.xml"/>
        <route-files value="c:\Users\thang\Downloads\TRAFFIC-LLIRL\nets\demo\route_temp_21676_2824254260192_85056024.rou.xml"/>
    </input>

    <output>
        <summary-output value="../result_test/h\summary_ep_1.xml"/>
        <tripinfo-output value="../result_test/h\tripinfo_ep_1.xml"/>
        <vehroute-output value="../result_test/h\vehroute_ep_1.xml"/>
    </output>

    <time>
        <begin value="0"/>
    </time>

    <report>
        <verbose value="true"/>
        <no-step-log value="true"/>
    </report>

    <traci_server>
        <remote-port value="50667"/>
    </traci_server>

    <gui_only>
        <gui-settings-file value="c:\Users\thang\Downloads\TRAFFIC-LLIRL\nets\demo\gui-settings.xml"/>
        <quit-on-end value="true"/>
        <start value="true"/>
        <delay value="150"/>
    </gui_only>

</sumoConfiguration>
-->

<tripinfos xmlns:xsi="http://www.w3.org/2001/XMLSchema-instance" xsi:noNamespaceSchemaLocation="http://sumo.dlr.de/xsd/tripinfo_file.xsd">
    <tripinfo id="flow_flatten_r_S_to_E.0" depart="0.00" departLane="S_in_0" departPos="168.29" departSpeed="12.04" departDelay="0.00" arrival="19.00" arrivalLane="E_out_0" arrivalPos="189.60" arrivalSpeed="13.80" duration="19.00" routeLength="219.94" waitingTime="0.00" waitingCount="0" stopTime="0.00" timeLoss="2.80" rerouteNo="0" devices="vehroute_flow_flatten_r_S_to_E.0 tripinfo_flow_flatten_r_S_to_E.0" vType="moto" speedFactor="1.05" vaporized=""/>
    <tripinfo id="flow_flatten_r_N_to_N.0" depart="0.00" departLane="N_in_1" departPos="166.01" departSpeed="0.96" departDelay="0.00" arrival="21.00" arrivalLane="N_out_1" arrivalPos="189.60" arrivalSpeed="15.54" duration="21.00" routeLength="217.86" waitingTime="0.00" waitingCount="0" stopTime="0.00" timeLoss="5.82" rerouteNo="0" devices="vehroute_flow_flatten_r_N_to_N.0 tripinfo_flow_flatten_r_N_to_N.0" vType="moto" speedFactor="1.15" vaporized=""/>
    <tripinfo id="flow_flatten_r_S_to_S.0" depart="0.00" departLane="S_in_1" departPos="144.95" departSpeed="4.26" departDelay="0.00" arrival="26.00" arrivalLane="S_out_1" arrivalPos="189.60" arrivalSpeed="14.08" duration="26.00" routeLength="238.92" waitingTime="0.00" waitingCount="0" stopTime="0.00" timeLoss="7.28" rerouteNo="0" devices="vehroute_flow_flatten_r_S_to_S.0 tripinfo_flow_flatten_r_S_to_S.0" vType="truck" speedFactor="1.02" vaporized=""/>
    <tripinfo id="flow_flatten_r_S_to_N.1" depart="11.00" departLane="S_in_1" departPos="182.00" departSpeed="14.96" departDelay="0.40" arrival="26.00" arrivalLane="N_out_1" arrivalPos="189.60" arrivalSpeed="15.92" duration="15.00" routeLength="218.00" waitingTime="0.00" waitingCount="0" stopTime="0.00" timeLoss="0.49" rerouteNo="0" devices="vehroute_flow_flatten_r_S_to_N.1 tripinfo_flow_flatten_r_S_to_N.1" vType="moto" speedFactor="1.16" vaporized=""/>
    <tripinfo id="flow_flatten_r_N_to_E.0" depart="0.00" departLane="N_in_1" departPos="107.37" departSpeed="5.80" departDelay="0.00" arrival="27.00" arrivalLane="E_out_1" arrivalPos="189.60" arrivalSpeed="12.65" duration="27.00" routeLength="291.18" waitingTime="0.00" waitingCount="0" stopTime="0.00" timeLoss="2.74" rerouteNo="0" devices="vehroute_flow_flatten_r_N_to_E.0 tripinfo_flow_flatten_r_N_to_E.0" vType="car" speedFactor="0.92" vaporized=""/>
    <tripinfo id="flow_flatten_r_S_to_N.0" depart="0.00" departLane="S_in_0" departPos="44.88" departSpeed="6.80" departDelay="0.00" arrival="31.00" arrivalLane="N_out_0" arrivalPos="189.60" arrivalSpeed="12.18" duration="31.00" routeLength="355.12" waitingTime="0.00" waitingCount="0" stopTime="0.00" timeLoss="1.99" rerouteNo="0" devices="vehroute_flow_flatten_r_S_to_N.0 tripinfo_flow_flatten_r_S_to_N.0" vType="truck" speedFactor="0.90" vaporized=""/>
    <tripinfo id="flow_flatten_r_N_to_S.1" depart="11.00" departLane="N_in_0" departPos="113.04" departSpeed="10.33" departDelay="0.17" arrival="32.00" arrivalLane="S_out_1" arrivalPos="189.60" arrivalSpeed="13.55" duration="21.00" routeLength="286.96" waitingTime="0.00" waitingCount="0" stopTime="0.00" timeLoss="1.12" rerouteNo="0" devices="vehroute_flow_flatten_r_N_to_S.1 tripinfo_flow_flatten_r_N_to_S.1" vType="moto" speedFactor="1.04" vaporized=""/>
    <tripinfo id="flow_flatten_r_N_to_W.0" depart="0.00" departLane="N_in_0" departPos="120.11" departSpeed="3.62" departDelay="0.00" arrival="33.00" arrivalLane="W_out_0" arrivalPos="189.60" arrivalSpeed="11.54" duration="33.00" routeLength="268.12" waitingTime="0.00" waitingCount="0" stopTime="0.00" timeLoss="9.12" rerouteNo="0" devices="vehroute_flow_flatten_r_N_to_W.0 tripinfo_flow_flatten_r_N_to_W.0" vType="container" speedFactor="0.85" vaporized=""/>
    <tripinfo id="flow_flatten_r_N_to_S.0" depart="0.00" departLane="N_in_0" departPos="8.76" departSpeed="8.37" departDelay="0.00" arrival="34.00" arrivalLane="S_out_0" arrivalPos="189.60" arrivalSpeed="12.19" duration="34.00" routeLength="391.24" waitingTime="0.00" waitingCount="0" stopTime="0.00" timeLoss="2.04" rerouteNo="0" devices="vehroute_flow_flatten_r_N_to_S.0 tripinfo_flow_flatten_r_N_to_S.0" vType="moto" speedFactor="0.88" vaporized=""/>
    <tripinfo id="flow_flatten_r_S_to_W.0" depart="0.00" departLane="S_in_0" departPos="5.65" departSpeed="12.67" departDelay="0.00" arrival="42.00" arrivalLane="W_out_1" arrivalPos="189.60" arrivalSpeed="13.17" duration="42.00" routeLength="392.90" waitingTime="1.00" waitingCount="1" stopTime="0.00" timeLoss="11.47" rerouteNo="0" devices="vehroute_flow_flatten_r_S_to_W.0 tripinfo_flow_flatten_r_S_to_W.0" vType="bus" speedFactor="0.96" vaporized=""/>
    <tripinfo id="flow_flatten_r_S_to_N.2" depart="22.00" departLane="S_in_1" departPos="175.97" departSpeed="7.37" departDelay="0.80" arrival="42.00" arrivalLane="N_out_1" arrivalPos="189.60" arrivalSpeed="12.96" duration="20.00" routeLength="224.03" waitingTime="0.00" waitingCount="0" stopTime="0.00" timeLoss="3.17" rerouteNo="0" devices="vehroute_flow_flatten_r_S_to_N.2 tripinfo_flow_flatten_r_S_to_N.2" vType="moto" speedFactor="0.99" vaporized=""/>
    <tripinfo id="flow_flatten_r_N_to_E.1" depart="27.00" departLane="N_in_1" departPos="188.13" departSpeed="1.46" departDelay="0.82" arrival="46.00" arrivalLane="E_out_1" arrivalPos="189.60" arrivalSpeed="12.57" duration="19.00" routeLength="210.42" waitingTime="0.00" waitingCount="0" stopTime="0.00" timeLoss="2.12" rerouteNo="0" devices="vehroute_flow_flatten_r_N_to_E.1 tripinfo_flow_flatten_r_N_to_E.1" vType="moto" speedFactor="0.96" vaporized=""/>
    <tripinfo id="flow_flatten_r_S_to_N.3" depart="32.00" departLane="S_in_0" departPos="156.52" departSpeed="7.69" departDelay="0.21" arrival="50.00" arrivalLane="N_out_0" arrivalPos="189.60" arrivalSpeed="14.53" duration="18.00" routeLength="243.48" waitingTime="0.00" waitingCount="0" stopTime="0.00" timeLoss="0.99" rerouteNo="0" devices="vehroute_flow_flatten_r_S_to_N.3 tripinfo_flow_flatten_r_S_to_N.3" vType="moto" speedFactor="1.08" vaporized=""/>
    <tripinfo id="flow_flatten_r_N_to_W.1" depart="28.00" departLane="N_in_0" departPos="136.87" departSpeed="1.25" departDelay="0.62" arrival="51.00" arrivalLane="W_out_0" arrivalPos="189.60" arrivalSpeed="15.39" duration="23.00" routeLength="251.36" waitingTime="0.00" waitingCount="0" stopTime="0.00" timeLoss="5.65" rerouteNo="0" devices="vehroute_flow_flatten_r_N_to_W.1 tripinfo_flow_flatten_r_N_to_W.1" vType="moto" speedFactor="1.12" vaporized=""/>
    <tripinfo id="flow_flatten_r_N_to_S.2" depart="22.00" departLane="N_in_0" departPos="5.28" departSpeed="2.37" departDelay="0.35" arrival="52.00" arrivalLane="S_out_1" arrivalPos="189.60" arrivalSpeed="15.32" duration="30.00" routeLength="394.72" waitingTime="0.00" waitingCount="0" stopTime="0.00" timeLoss="3.79" rerouteNo="0" devices="vehroute_flow_flatten_r_N_to_S.2 tripinfo_flow_flatten_r_N_to_S.2" vType="car" speedFactor="1.12" vaporized=""/>
    <tripinfo id="flow_flatten_r_S_to_W.1" depart="27.00" departLane="S_in_0" departPos="34.25" departSpeed="2.67" departDelay="0.20" arrival="61.00" arrivalLane="W_out_1" arrivalPos="189.60" arrivalSpeed="12.79" duration="34.00" routeLength="364.30" waitingTime="0.00" waitingCount="0" stopTime="0.00" timeLoss="4.48" rerouteNo="0" devices="vehroute_flow_flatten_r_S_to_W.1 tripinfo_flow_flatten_r_S_to_W.1" vType="moto" speedFactor="0.93" vaporized=""/>
    <tripinfo id="flow_flatten_r_W_to_S.0" depart="0.00" departLane="W_in_0" departPos="108.38" departSpeed="3.13" departDelay="0.00" arrival="62.00" arrivalLane="S_out_0" arrivalPos="189.60" arrivalSpeed="12.91" duration="62.00" routeLength="279.85" waitingTime="34.00" waitingCount="1" stopTime="0.00" timeLoss="41.37" rerouteNo="0" devices="vehroute_flow_flatten_r_W_to_S.0 tripinfo_flow_flatten_r_W_to_S.0" vType="moto" speedFactor="1.01" vaporized=""/>
    <tripinfo id="flow_flatten_r_W_to_E.0" depart="0.00" departLane="W_in_0" departPos="24.53" departSpeed="4.77" departDelay="0.00" arrival="65.00" arrivalLane="E_out_0" arrivalPos="189.60" arrivalSpeed="14.34" duration="65.00" routeLength="375.47" waitingTime="30.00" waitingCount="1" stopTime="0.00" timeLoss="37.95" rerouteNo="0" devices="vehroute_flow_flatten_r_W_to_E.0 tripinfo_flow_flatten_r_W_to_E.0" vType="moto" speedFactor="1.03" vaporized=""/>
    <tripinfo id="flow_flatten_r_W_to_E.1" depart="16.00" departLane="W_in_0" departPos="34.76" departSpeed="15.28" departDelay="0.80" arrival="66.00" arrivalLane="E_out_0" arrivalPos="189.60" arrivalSpeed="15.03" duration="50.00" routeLength="365.24" waitingTime="17.00" waitingCount="1" stopTime="0.00" timeLoss="26.61" rerouteNo="0" devices="vehroute_flow_flatten_r_W_to_E.1 tripinfo_flow_flatten_r_W_to_E.1" vType="moto" speedFactor="1.19" vaporized=""/>
    <tripinfo id="flow_flatten_r_E_to_W.0" depart="0.00" departLane="E_in_1" departPos="127.60" departSpeed="0.09" departDelay="0.00" arrival="67.00" arrivalLane="W_out_0" arrivalPos="189.60" arrivalSpeed="13.64" duration="67.00" routeLength="272.40" waitingTime="31.00" waitingCount="1" stopTime="0.00" timeLoss="47.26" rerouteNo="0" devices="vehroute_flow_flatten_r_E_to_W.0 tripinfo_flow_flatten_r_E_to_W.0" vType="truck" speedFactor="1.02" vaporized=""/>
    <tripinfo id="flow_flatten_r_E_to_N.0" depart="0.00" departLane="E_in_1" departPos="8.27" departSpeed="7.69" departDelay="0.00" arrival="68.00" arrivalLane="N_out_0" arrivalPos="189.60" arrivalSpeed="12.30" duration="68.00" routeLength="379.96" waitingTime="29.00" waitingCount="1" stopTime="0.00" timeLoss="37.48" rerouteNo="0" devices="vehroute_flow_flatten_r_E_to_N.0 tripinfo_flow_flatten_r_E_to_N.0" vType="car" speedFactor="0.94" vaporized=""/>
    <tripinfo id="flow_flatten_r_W_to_E.2" depart="31.00" departLane="W_in_1" departPos="116.63" departSpeed="6.10" departDelay="0.61" arrival="68.00" arrivalLane="E_out_0" arrivalPos="189.60" arrivalSpeed="14.19" duration="37.00" routeLength="283.37" waitingTime="3.00" waitingCount="1" stopTime="0.00" timeLoss="16.36" rerouteNo="0" devices="vehroute_flow_flatten_r_W_to_E.2 tripinfo_flow_flatten_r_W_to_E.2" vType="moto" speedFactor="1.04" vaporized=""/>
    <tripinfo id="flow_flatten_r_E_to_S.0" depart="0.00" departLane="E_in_0" departPos="103.38" departSpeed="3.51" departDelay="0.00" arrival="71.00" arrivalLane="S_out_1" arrivalPos="189.60" arrivalSpeed="13.81" duration="71.00" routeLength="295.17" waitingTime="36.00" waitingCount="2" stopTime="0.00" timeLoss="49.23" rerouteNo="0" devices="vehroute_flow_flatten_r_E_to_S.0 tripinfo_flow_flatten_r_E_to_S.0" vType="moto" speedFactor="1.02" vaporized=""/>
    <tripinfo id="flow_flatten_r_W_to_S.1" depart="38.00" departLane="W_in_1" departPos="118.54" departSpeed="10.72" departDelay="0.71" arrival="72.00" arrivalLane="S_out_0" arrivalPos="189.60" arrivalSpeed="12.18" duration="34.00" routeLength="269.69" waitingTime="1.00" waitingCount="1" stopTime="0.00" timeLoss="10.48" rerouteNo="0" devices="vehroute_flow_flatten_r_W_to_S.1 tripinfo_flow_flatten_r_W_to_S.1" vType="moto" speedFactor="0.88" vaporized=""/>
    <tripinfo id="flow_flatten_r_E_to_W.1" depart="15.00" departLane="E_in_1" departPos="109.98" departSpeed="5.98" departDelay="0.38" arrival="73.00" arrivalLane="W_out_0" arrivalPos="189.60" arrivalSpeed="11.55" duration="58.00" routeLength="290.02" waitingTime="22.00" waitingCount="2" stopTime="0.00" timeLoss="33.65" rerouteNo="0" devices="vehroute_flow_flatten_r_E_to_W.1 tripinfo_flow_flatten_r_E_to_W.1" vType="moto" speedFactor="0.87" vaporized=""/>
    <tripinfo id="flow_flatten_r_E_to_E.0" depart="0.00" departLane="E_in_0" departPos="8.62" departSpeed="10.83" departDelay="0.00" arrival="75.00" arrivalLane="E_out_1" arrivalPos="189.60" arrivalSpeed="14.97" duration="75.00" routeLength="375.25" waitingTime="36.00" waitingCount="2" stopTime="0.00" timeLoss="49.30" rerouteNo="0" devices="vehroute_flow_flatten_r_E_to_E.0 tripinfo_flow_flatten_r_E_to_E.0" vType="moto" speedFactor="1.09" vaporized=""/>
    <tripinfo id="flow_flatten_r_E_to_N.1" depart="37.00" departLane="E_in_1" departPos="57.40" departSpeed="0.25" departDelay="0.11" arrival="79.00" arrivalLane="N_out_0" arrivalPos="189.60" arrivalSpeed="9.93" duration="42.00" routeLength="330.83" waitingTime="0.00" waitingCount="0" stopTime="0.00" timeLoss="9.45" rerouteNo="0" devices="vehroute_flow_flatten_r_E_to_N.1 tripinfo_flow_flatten_r_E_to_N.1" vType="truck" speedFactor="0.77" vaporized=""/>
    <tripinfo id="flow_flatten_r_E_to_W.2" depart="30.00" departLane="E_in_1" departPos="40.26" departSpeed="3.16" departDelay="0.76" arrival="84.00" arrivalLane="W_out_0" arrivalPos="189.60" arrivalSpeed="10.74" duration="54.00" routeLength="359.74" waitingTime="0.00" waitingCount="0" stopTime="0.00" timeLoss="20.15" rerouteNo="0" devices="vehroute_flow_flatten_r_E_to_W.2 tripinfo_flow_flatten_r_E_to_W.2" vType="container" speedFactor="0.78" vaporized=""/>
    <tripinfo id="flow_flatten_r_E_to_S.1" depart="39.00" departLane="E_in_1" departPos="134.76" departSpeed="6.26" departDelay="0.97" arrival="87.00" arrivalLane="S_out_1" arrivalPos="189.60" arrivalSpeed="12.70" duration="48.00" routeLength="263.79" waitingTime="4.00" waitingCount="1" stopTime="0.00" timeLoss="26.35" rerouteNo="0" devices="vehroute_flow_flatten_r_E_to_S.1 tripinfo_flow_flatten_r_E_to_S.1" vType="container" speedFactor="0.91" vaporized=""/>
    <tripinfo id="flow_flatten_r_E_to_W.3" depart="44.00" departLane="E_in_0" departPos="19.25" departSpeed="11.19" departDelay="0.14" arrival="91.00" arrivalLane="W_out_0" arrivalPos="189.60" arrivalSpeed="15.49" duration="47.00" routeLength="380.75" waitingTime="0.00" waitingCount="0" stopTime="0.00" timeLoss="22.89" rerouteNo="0" devices="vehroute_flow_flatten_r_E_to_W.3 tripinfo_flow_flatten_r_E_to_W.3" vType="moto" speedFactor="1.20" vaporized=""/>
    <tripinfo id="flow_flatten_r_W_to_E.3" depart="46.00" departLane="W_in_1" departPos="23.57" departSpeed="9.43" departDelay="0.41" arrival="91.00" arrivalLane="E_out_0" arrivalPos="189.60" arrivalSpeed="12.95" duration="45.00" routeLength="376.43" waitingTime="0.00" waitingCount="0" stopTime="0.00" timeLoss="15.82" rerouteNo="0" devices="vehroute_flow_flatten_r_W_to_E.3 tripinfo_flow_flatten_r_W_to_E.3" vType="bus" speedFactor="0.95" vaporized=""/>
    <tripinfo id="flow_flatten_r_E_to_W.5" depart="74.00" departLane="E_in_1" departPos="155.35" departSpeed="12.62" departDelay="0.90" arrival="93.00" arrivalLane="W_out_1" arrivalPos="189.60" arrivalSpeed="14.55" duration="19.00" routeLength="244.65" waitingTime="0.00" waitingCount="0" stopTime="0.00" timeLoss="2.18" rerouteNo="0" devices="vehroute_flow_flatten_r_E_to_W.5 tripinfo_flow_flatten_r_E_to_W.5" vType="moto" speedFactor="1.07" vaporized=""/>
    <tripinfo id="flow_flatten_r_W_to_N.0" depart="0.00" departLane="W_in_1" departPos="182.88" departSpeed="4.61" departDelay="0.00" arrival="94.00" arrivalLane="N_out_0" arrivalPos="189.60" arrivalSpeed="11.10" duration="94.00" routeLength="215.67" waitingTime="57.00" waitingCount="2" stopTime="0.00" timeLoss="73.84" rerouteNo="0" devices="vehroute_flow_flatten_r_W_to_N.0 tripinfo_flow_flatten_r_W_to_N.0" vType="container" speedFactor="0.82" vaporized=""/>
    <tripinfo id="flow_flatten_r_E_to_W.4" depart="59.00" departLane="E_in_1" departPos="91.52" departSpeed="12.98" departDelay="0.52" arrival="96.00" arrivalLane="W_out_0" arrivalPos="189.60" arrivalSpeed="12.50" duration="37.00" routeLength="308.48" waitingTime="0.00" waitingCount="0" stopTime="0.00" timeLoss="12.79" rerouteNo="0" devices="vehroute_flow_flatten_r_E_to_W.4 tripinfo_flow_flatten_r_E_to_W.4" vType="moto" speedFactor="0.95" vaporized=""/>
    <tripinfo id="flow_flatten_r_W_to_E.4" depart="61.00" departLane="W_in_1" departPos="65.57" departSpeed="2.07" departDelay="0.22" arrival="96.00" arrivalLane="E_out_0" arrivalPos="189.60" arrivalSpeed="11.24" duration="35.00" routeLength="334.43" waitingTime="0.00" waitingCount="0" stopTime="0.00" timeLoss="7.42" rerouteNo="0" devices="vehroute_flow_flatten_r_W_to_E.4 tripinfo_flow_flatten_r_W_to_E.4" vType="moto" speedFactor="0.89" vaporized=""/>
    <tripinfo id="flow_flatten_r_E_to_E.1" depart="75.00" departLane="E_in_0" departPos="177.50" departSpeed="8.30" departDelay="0.28" arrival="96.00" arrivalLane="E_out_1" arrivalPos="189.60" arrivalSpeed="15.39" duration="21.00" routeLength="206.37" waitingTime="1.00" waitingCount="1" stopTime="0.00" timeLoss="6.54" rerouteNo="0" devices="vehroute_flow_flatten_r_E_to_E.1 tripinfo_flow_flatten_r_E_to_E.1" vType="moto" speedFactor="1.14" vaporized=""/>
    <tripinfo id="flow_flatten_r_W_to_W.0" depart="0.00" departLane="W_in_0" departPos="16.88" departSpeed="4.76" departDelay="0.00" arrival="101.00" arrivalLane="W_out_0" arrivalPos="189.60" arrivalSpeed="11.74" duration="101.00" routeLength="366.99" waitingTime="49.00" waitingCount="3" stopTime="0.00" timeLoss="67.28" rerouteNo="0" devices="vehroute_flow_flatten_r_W_to_W.0 tripinfo_flow_flatten_r_W_to_W.0" vType="moto" speedFactor="0.85" vaporized=""/>
    <tripinfo id="flow_flatten_r_W_to_E.5" depart="76.00" departLane="W_in_1" departPos="152.01" departSpeed="4.57" departDelay="0.02" arrival="102.00" arrivalLane="E_out_0" arrivalPos="189.60" arrivalSpeed="11.66" duration="26.00" routeLength="247.99" waitingTime="0.00" waitingCount="0" stopTime="0.00" timeLoss="5.76" rerouteNo="0" devices="vehroute_flow_flatten_r_W_to_E.5 tripinfo_flow_flatten_r_W_to_E.5" vType="car" speedFactor="0.90" vaporized=""/>
    <tripinfo id="flow_flatten_r_E_to_N.2" depart="74.00" departLane="E_in_0" departPos="78.09" departSpeed="11.28" departDelay="0.22" arrival="104.00" arrivalLane="N_out_0" arrivalPos="189.60" arrivalSpeed="12.26" duration="30.00" routeLength="310.14" waitingTime="0.00" waitingCount="0" stopTime="0.00" timeLoss="3.64" rerouteNo="0" devices="vehroute_flow_flatten_r_E_to_N.2 tripinfo_flow_flatten_r_E_to_N.2" vType="truck" speedFactor="0.89" vaporized=""/>
    <tripinfo id="flow_flatten_r_W_to_N.1" depart="40.00" departLane="W_in_1" departPos="108.76" departSpeed="10.34" departDelay="0.87" arrival="106.00" arrivalLane="N_out_1" arrivalPos="189.60" arrivalSpeed="11.39" duration="66.00" routeLength="289.79" waitingTime="20.00" waitingCount="2" stopTime="0.00" timeLoss="40.31" rerouteNo="0" devices="vehroute_flow_flatten_r_W_to_N.1 tripinfo_flow_flatten_r_W_to_N.1" vType="bus" speedFactor="0.85" vaporized=""/>
    <tripinfo id="flow_flatten_r_S_to_N.4" depart="43.00" departLane="S_in_1" departPos="77.94" departSpeed="4.43" departDelay="0.61" arrival="108.00" arrivalLane="N_out_0" arrivalPos="189.60" arrivalSpeed="14.87" duration="65.00" routeLength="322.06" waitingTime="36.00" waitingCount="1" stopTime="0.00" timeLoss="43.28" rerouteNo="0" devices="vehroute_flow_flatten_r_S_to_N.4 tripinfo_flow_flatten_r_S_to_N.4" vType="moto" speedFactor="1.08" vaporized=""/>
    <tripinfo id="flow_flatten_r_N_to_S.3" depart="33.00" departLane="N_in_0" departPos="69.24" departSpeed="6.06" departDelay="0.52" arrival="109.00" arrivalLane="S_out_1" arrivalPos="189.60" arrivalSpeed="14.19" duration="76.00" routeLength="330.76" waitingTime="45.00" waitingCount="1" stopTime="0.00" timeLoss="52.76" rerouteNo="0" devices="vehroute_flow_flatten_r_N_to_S.3 tripinfo_flow_flatten_r_N_to_S.3" vType="moto" speedFactor="1.05" vaporized=""/>
    <tripinfo id="flow_flatten_r_N_to_S.4" depart="44.00" departLane="N_in_0" departPos="148.08" departSpeed="9.64" departDelay="0.69" arrival="109.00" arrivalLane="S_out_0" arrivalPos="189.60" arrivalSpeed="13.84" duration="65.00" routeLength="251.92" waitingTime="39.00" waitingCount="1" stopTime="0.00" timeLoss="46.89" rerouteNo="0" devices="vehroute_flow_flatten_r_N_to_S.4 tripinfo_flow_flatten_r_N_to_S.4" vType="car" speedFactor="1.05" vaporized=""/>
    <tripinfo id="flow_flatten_r_S_to_E.1" depart="27.00" departLane="S_in_0" departPos="16.31" departSpeed="4.55" departDelay="0.97" arrival="113.00" arrivalLane="E_out_0" arrivalPos="189.60" arrivalSpeed="12.80" duration="86.00" routeLength="371.92" waitingTime="42.00" waitingCount="1" stopTime="0.00" timeLoss="56.96" rerouteNo="0" devices="vehroute_flow_flatten_r_S_to_E.1 tripinfo_flow_flatten_r_S_to_E.1" vType="bus" speedFactor="0.97" vaporized=""/>
    <tripinfo id="flow_flatten_r_N_to_S.5" depart="55.00" departLane="N_in_1" departPos="121.56" departSpeed="1.57" departDelay="0.87" arrival="113.00" arrivalLane="S_out_0" arrivalPos="189.60" arrivalSpeed="15.14" duration="58.00" routeLength="278.44" waitingTime="28.00" waitingCount="2" stopTime="0.00" timeLoss="39.48" rerouteNo="0" devices="vehroute_flow_flatten_r_N_to_S.5 tripinfo_flow_flatten_r_N_to_S.5" vType="emergency" speedFactor="1.10" vaporized=""/>
    <tripinfo id="flow_flatten_r_N_to_W.2" depart="55.00" departLane="N_in_0" departPos="104.14" departSpeed="12.34" departDelay="0.23" arrival="114.00" arrivalLane="W_out_0" arrivalPos="189.60" arrivalSpeed="12.57" duration="59.00" routeLength="284.09" waitingTime="26.00" waitingCount="1" stopTime="0.00" timeLoss="36.32" rerouteNo="0" devices="vehroute_flow_flatten_r_N_to_W.2 tripinfo_flow_flatten_r_N_to_W.2" vType="truck" speedFactor="0.94" vaporized=""/>
    <tripinfo id="flow_flatten_r_S_to_E.2" depart="53.00" departLane="S_in_0" departPos="160.30" departSpeed="7.43" departDelay="0.94" arrival="116.00" arrivalLane="E_out_0" arrivalPos="189.60" arrivalSpeed="12.20" duration="63.00" routeLength="227.93" waitingTime="34.00" waitingCount="1" stopTime="0.00" timeLoss="44.18" rerouteNo="0" devices="vehroute_flow_flatten_r_S_to_E.2 tripinfo_flow_flatten_r_S_to_E.2" vType="truck" speedFactor="0.92" vaporized=""/>
    <tripinfo id="flow_flatten_r_N_to_S.6" depart="65.00" departLane="N_in_1" departPos="2.21" departSpeed="9.40" departDelay="0.04" arrival="116.00" arrivalLane="S_out_0" arrivalPos="189.60" arrivalSpeed="14.22" duration="51.00" routeLength="397.79" waitingTime="12.00" waitingCount="1" stopTime="0.00" timeLoss="22.70" rerouteNo="0" devices="vehroute_flow_flatten_r_N_to_S.6 tripinfo_flow_flatten_r_N_to_S.6" vType="moto" speedFactor="1.03" vaporized=""/>
    <tripinfo id="flow_flatten_r_N_to_S.7" depart="76.00" departLane="N_in_1" departPos="137.11" departSpeed="4.96" departDelay="0.21" arrival="117.00" arrivalLane="S_out_0" arrivalPos="189.60" arrivalSpeed="14.23" duration="41.00" routeLength="262.89" waitingTime="10.00" waitingCount="2" stopTime="0.00" timeLoss="23.85" rerouteNo="0" devices="vehroute_flow_flatten_r_N_to_S.7 tripinfo_flow_flatten_r_N_to_S.7" vType="moto" speedFactor="1.10" vaporized=""/>
    <tripinfo id="flow_flatten_r_S_to_E.3" depart="79.00" departLane="S_in_1" departPos="47.50" departSpeed="4.37" departDelay="0.90" arrival="118.00" arrivalLane="E_out_0" arrivalPos="189.60" arrivalSpeed="13.00" duration="39.00" routeLength="340.73" waitingTime="0.00" waitingCount="0" stopTime="0.00" timeLoss="12.79" rerouteNo="0" devices="vehroute_flow_flatten_r_S_to_E.3 tripinfo_flow_flatten_r_S_to_E.3" vType="car" speedFactor="0.98" vaporized=""/>
    <tripinfo id="flow_flatten_r_S_to_N.8" depart="85.00" departLane="S_in_0" departPos="6.57" departSpeed="1.25" departDelay="0.22" arrival="118.00" arrivalLane="N_out_0" arrivalPos="189.60" arrivalSpeed="13.62" duration="33.00" routeLength="393.43" waitingTime="0.00" waitingCount="0" stopTime="0.00" timeLoss="6.21" rerouteNo="0" devices="vehroute_flow_flatten_r_S_to_N.8 tripinfo_flow_flatten_r_S_to_N.8" vType="moto" speedFactor="1.06" vaporized=""/>
    <tripinfo id="flow_flatten_r_S_to_N.6" depart="64.00" departLane="S_in_0" departPos="64.25" departSpeed="6.13" departDelay="0.41" arrival="123.00" arrivalLane="N_out_0" arrivalPos="189.60" arrivalSpeed="12.70" duration="59.00" routeLength="335.75" waitingTime="19.00" waitingCount="2" stopTime="0.00" timeLoss="32.63" rerouteNo="0" devices="vehroute_flow_flatten_r_S_to_N.6 tripinfo_flow_flatten_r_S_to_N.6" vType="moto" speedFactor="0.94" vaporized=""/>
    <tripinfo id="flow_flatten_r_N_to_S.8" depart="87.00" departLane="N_in_1" departPos="22.64" departSpeed="11.00" departDelay="0.38" arrival="123.00" arrivalLane="S_out_0" arrivalPos="189.60" arrivalSpeed="14.66" duration="36.00" routeLength="377.36" waitingTime="0.00" waitingCount="0" stopTime="0.00" timeLoss="9.67" rerouteNo="0" devices="vehroute_flow_flatten_r_N_to_S.8 tripinfo_flow_flatten_r_N_to_S.8" vType="moto" speedFactor="1.07" vaporized=""/>
    <tripinfo id="flow_flatten_r_S_to_N.9" depart="96.00" departLane="S_in_0" departPos="36.14" departSpeed="9.67" departDelay="0.62" arrival="124.00" arrivalLane="N_out_0" arrivalPos="189.60" arrivalSpeed="14.57" duration="28.00" routeLength="363.86" waitingTime="0.00" waitingCount="0" stopTime="0.00" timeLoss="5.00" rerouteNo="0" devices="vehroute_flow_flatten_r_S_to_N.9 tripinfo_flow_flatten_r_S_to_N.9" vType="moto" speedFactor="1.17" vaporized=""/>
    <tripinfo id="flow_flatten_r_S_to_N.5" depart="53.00" departLane="S_in_1" departPos="65.33" departSpeed="12.93" departDelay="0.01" arrival="126.00" arrivalLane="N_out_0" arrivalPos="189.60" arrivalSpeed="13.98" duration="73.00" routeLength="334.67" waitingTime="33.00" waitingCount="2" stopTime="0.00" timeLoss="49.32" rerouteNo="0" devices="vehroute_flow_flatten_r_S_to_N.5 tripinfo_flow_flatten_r_S_to_N.5" vType="moto" speedFactor="1.03" vaporized=""/>
    <tripinfo id="flow_flatten_r_N_to_W.3" depart="83.00" departLane="N_in_1" departPos="150.35" departSpeed="2.84" departDelay="0.85" arrival="126.00" arrivalLane="W_out_0" arrivalPos="189.60" arrivalSpeed="11.02" duration="43.00" routeLength="237.88" waitingTime="8.00" waitingCount="1" stopTime="0.00" timeLoss="19.78" rerouteNo="0" devices="vehroute_flow_flatten_r_N_to_W.3 tripinfo_flow_flatten_r_N_to_W.3" vType="moto" speedFactor="0.80" vaporized=""/>
    <tripinfo id="flow_flatten_r_S_to_S.1" depart="53.00" departLane="S_in_1" departPos="111.69" departSpeed="5.97" departDelay="0.20" arrival="128.00" arrivalLane="S_out_1" arrivalPos="189.60" arrivalSpeed="13.35" duration="75.00" routeLength="272.18" waitingTime="42.00" waitingCount="2" stopTime="0.00" timeLoss="53.17" rerouteNo="0" devices="vehroute_flow_flatten_r_S_to_S.1 tripinfo_flow_flatten_r_S_to_S.1" vType="moto" speedFactor="1.00" vaporized=""/>
    <tripinfo id="flow_flatten_r_W_to_S.2" depart="75.00" departLane="W_in_1" departPos="29.07" departSpeed="2.60" departDelay="0.43" arrival="133.00" arrivalLane="S_out_0" arrivalPos="189.60" arrivalSpeed="11.76" duration="58.00" routeLength="359.16" waitingTime="20.00" waitingCount="1" stopTime="0.00" timeLoss="28.23" rerouteNo="0" devices="vehroute_flow_flatten_r_W_to_S.2 tripinfo_flow_flatten_r_W_to_S.2" vType="moto" speedFactor="0.90" vaporized=""/>
    <tripinfo id="flow_flatten_r_W_to_E.6" depart="92.00" departLane="W_in_0" departPos="150.32" departSpeed="5.31" departDelay="0.82" arrival="135.00" arrivalLane="E_out_0" arrivalPos="189.60" arrivalSpeed="11.43" duration="43.00" routeLength="249.68" waitingTime="16.00" waitingCount="1" stopTime="0.00" timeLoss="22.67" rerouteNo="0" devices="vehroute_flow_flatten_r_W_to_E.6 tripinfo_flow_flatten_r_W_to_E.6" vType="moto" speedFactor="0.89" vaporized=""/>
    <tripinfo id="flow_flatten_r_N_to_E.2" depart="53.00" departLane="N_in_0" departPos="167.23" departSpeed="1.90" departDelay="0.64" arrival="137.00" arrivalLane="E_out_1" arrivalPos="189.60" arrivalSpeed="13.22" duration="84.00" routeLength="231.32" waitingTime="45.00" waitingCount="2" stopTime="0.00" timeLoss="66.02" rerouteNo="0" devices="vehroute_flow_flatten_r_N_to_E.2 tripinfo_flow_flatten_r_N_to_E.2" vType="container" speedFactor="0.97" vaporized=""/>
    <tripinfo id="flow_flatten_r_W_to_W.1" depart="76.00" departLane="W_in_0" departPos="24.55" departSpeed="8.22" departDelay="0.83" arrival="138.00" arrivalLane="W_out_1" arrivalPos="189.60" arrivalSpeed="13.12" duration="62.00" routeLength="359.32" waitingTime="26.00" waitingCount="2" stopTime="0.00" timeLoss="35.21" rerouteNo="0" devices="vehroute_flow_flatten_r_W_to_W.1 tripinfo_flow_flatten_r_W_to_W.1" vType="moto" speedFactor="1.02" vaporized=""/>
    <tripinfo id="flow_flatten_r_W_to_E.7" depart="107.00" departLane="W_in_1" departPos="109.12" departSpeed="2.86" departDelay="0.63" arrival="138.00" arrivalLane="E_out_0" arrivalPos="189.60" arrivalSpeed="13.45" duration="31.00" routeLength="290.88" waitingTime="0.00" waitingCount="0" stopTime="0.00" timeLoss="9.35" rerouteNo="0" devices="vehroute_flow_flatten_r_W_to_E.7 tripinfo_flow_flatten_r_W_to_E.7" vType="moto" speedFactor="0.97" vaporized=""/>