<?xml version="1.0" encoding="UTF-8"?>

<!-- generated on 2025-12-21 11:17:56 by Eclipse SUMO GUI Version 1.24.0
<sumoConfiguration xmlns:xsi="http://www.w3.org/2001/XMLSchema-instance" xsi:noNamespaceSchemaLocation="http://sumo.dlr.de/xsd/sumoConfiguration.xsd">

    <input>
        <net-file value="c:\Users\thang\Downloads\TRAFFIC-LLIRL\nets\demo\net.net.xml"/>
        <route-files value="c:\Users\thang\Downloads\TRAFFIC-LLIRL\nets\demo\route_temp_21676_2824254260192_85056024.rou.xml"/>
    </input>

    <output>
        <summary-output value="../result_test/h\summary_ep_1.xml"/>
        <tripinfo-output value="../result_test/h\tripinfo_ep_1.xml"/>
        <vehroute-output value="../result_test/h\vehroute_ep_1.xml"/>
    </output>

    <time>
        <begin value="0"/>
    </time>

    <report>
        <verbose value="true"/>
        <no-step-log value="true"/>
    </report>

    <traci_server>
        <remote-port value="50667"/>
    </traci_server>

    <gui_only>
        <gui-settings-file value="c:\Users\thang\Downloads\TRAFFIC-LLIRL\nets\demo\gui-settings.xml"/>
        <quit-on-end value="true"/>
        <start value="true"/>
        <delay value="150"/>
    </gui_only>

</sumoConfiguration>
-->

<routes xmlns:xsi="http://www.w3.org/2001/XMLSchema-instance" xsi:noNamespaceSchemaLocation="http://sumo.dlr.de/xsd/routes_file.xsd">
    <vehicle id="flow_flatten_r_S_to_E.0" type="moto" depart="0.00" departLane="0" departPos="168.2937" departSpeed="12.0365" speedFactor="1.0505" arrival="19.00">
        <route edges="S_in E_out"/>
    </vehicle>

    <vehicle id="flow_flatten_r_N_to_N.0" type="moto" depart="0.00" departLane="1" departPos="166.0107" departSpeed="0.9611" speedFactor="1.1475" arrival="21.00">
        <route edges="N_in N_out"/>
    </vehicle>

    <vehicle id="flow_flatten_r_S_to_S.0" type="truck" depart="0.00" departLane="1" departPos="144.9496" departSpeed="4.262" speedFactor="1.0161" arrival="26.00">
        <route edges="S_in S_out"/>
    </vehicle>

    <vehicle id="flow_flatten_r_S_to_N.1" type="moto" depart="11.00" departLane="1" departPos="182.0047" departSpeed="14.9608" speedFactor="1.1582" arrival="26.00">
        <route edges="S_in N_out"/>
    </vehicle>

    <vehicle id="flow_flatten_r_N_to_E.0" type="car" depart="0.00" departLane="1" departPos="107.3659" departSpeed="5.7992" speedFactor="0.9228" arrival="27.00">
        <route edges="N_in E_out"/>
    </vehicle>

    <vehicle id="flow_flatten_r_S_to_N.0" type="truck" depart="0.00" departLane="0" departPos="44.8816" departSpeed="6.8018" speedFactor="0.8990" arrival="31.00">
        <route edges="S_in N_out"/>
    </vehicle>

    <vehicle id="flow_flatten_r_N_to_S.1" type="moto" depart="11.00" departLane="0" departPos="113.0446" departSpeed="10.3272" speedFactor="1.0383" arrival="32.00">
        <route edges="N_in S_out"/>
    </vehicle>

    <vehicle id="flow_flatten_r_N_to_W.0" type="container" depart="0.00" departLane="0" departPos="120.1072" departSpeed="3.6228" speedFactor="0.8488" arrival="33.00">
        <route edges="N_in W_out"/>
    </vehicle>

    <vehicle id="flow_flatten_r_N_to_S.0" type="moto" depart="0.00" departLane="0" departPos="8.759" departSpeed="8.3676" speedFactor="0.8806" arrival="34.00">
        <route edges="N_in S_out"/>
    </vehicle>

    <vehicle id="flow_flatten_r_S_to_W.0" type="bus" depart="0.00" departLane="0" departPos="5.6544" departSpeed="12.666" speedFactor="0.9581" arrival="42.00">
        <route edges="S_in W_out"/>
    </vehicle>

    <vehicle id="flow_flatten_r_S_to_N.2" type="moto" depart="22.00" departLane="1" departPos="175.9691" departSpeed="7.3726" speedFactor="0.9938" arrival="42.00">
        <route edges="S_in N_out"/>
    </vehicle>

    <vehicle id="flow_flatten_r_N_to_E.1" type="moto" depart="27.00" departLane="1" departPos="188.1343" departSpeed="1.4647" speedFactor="0.9623" arrival="46.00">
        <route edges="N_in E_out"/>
    </vehicle>

    <vehicle id="flow_flatten_r_S_to_N.3" type="moto" depart="32.00" departLane="0" departPos="156.5209" departSpeed="7.6899" speedFactor="1.0788" arrival="50.00">
        <route edges="S_in N_out"/>
    </vehicle>

    <vehicle id="flow_flatten_r_N_to_W.1" type="moto" depart="28.00" departLane="0" departPos="136.8677" departSpeed="1.2485" speedFactor="1.1228" arrival="51.00">
        <route edges="N_in W_out"/>
    </vehicle>

    <vehicle id="flow_flatten_r_N_to_S.2" type="car" depart="22.00" departLane="0" departPos="5.2781" departSpeed="2.3675" speedFactor="1.1218" arrival="52.00">
        <route edges="N_in S_out"/>
    </vehicle>

    <vehicle id="flow_flatten_r_S_to_W.1" type="moto" depart="27.00" departLane="0" departPos="34.2537" departSpeed="2.672" speedFactor="0.9279" arrival="61.00">
        <route edges="S_in W_out"/>
    </vehicle>

    <vehicle id="flow_flatten_r_W_to_S.0" type="moto" depart="0.00" departLane="0" departPos="108.377" departSpeed="3.1328" speedFactor="1.0101" arrival="62.00">
        <route edges="W_in S_out"/>
    </vehicle>

    <vehicle id="flow_flatten_r_W_to_E.0" type="moto" depart="0.00" departLane="0" departPos="24.5296" departSpeed="4.7654" speedFactor="1.0348" arrival="65.00">
        <route edges="W_in E_out"/>
    </vehicle>

    <vehicle id="flow_flatten_r_W_to_E.1" type="moto" depart="16.00" departLane="0" departPos="34.7646" departSpeed="15.2785" speedFactor="1.1853" arrival="66.00">
        <route edges="W_in E_out"/>
    </vehicle>

    <vehicle id="flow_flatten_r_E_to_W.0" type="truck" depart="0.00" departLane="1" departPos="127.6015" departSpeed="0.0858" speedFactor="1.0225" arrival="67.00">
        <route edges="E_in W_out"/>
    </vehicle>

    <vehicle id="flow_flatten_r_E_to_N.0" type="car" depart="0.00" departLane="1" departPos="8.2688" departSpeed="7.6911" speedFactor="0.9379" arrival="68.00">
        <route edges="E_in N_out"/>
    </vehicle>

    <vehicle id="flow_flatten_r_W_to_E.2" type="moto" depart="31.00" departLane="1" departPos="116.6259" departSpeed="6.0975" speedFactor="1.0365" arrival="68.00">
        <route edges="W_in E_out"/>
    </vehicle>

    <vehicle id="flow_flatten_r_E_to_S.0" type="moto" depart="0.00" departLane="0" departPos="103.3842" departSpeed="3.5108" speedFactor="1.0205" arrival="71.00">
        <route edges="E_in S_out"/>
    </vehicle>

    <vehicle id="flow_flatten_r_W_to_S.1" type="moto" depart="38.00" departLane="1" departPos="118.5435" departSpeed="10.7169" speedFactor="0.8806" arrival="72.00">
        <route edges="W_in S_out"/>
    </vehicle>

    <vehicle id="flow_flatten_r_E_to_W.1" type="moto" depart="15.00" departLane="1" departPos="109.9809" departSpeed="5.9752" speedFactor="0.8727" arrival="73.00">
        <route edges="E_in W_out"/>
    </vehicle>

    <vehicle id="flow_flatten_r_E_to_E.0" type="moto" depart="0.00" departLane="0" departPos="8.6229" departSpeed="10.8267" speedFactor="1.0932" arrival="75.00">
        <route edges="E_in E_out"/>
    </vehicle>

    <vehicle id="flow_flatten_r_E_to_N.1" type="truck" depart="37.00" departLane="1" departPos="57.3992" departSpeed="0.2541" speedFactor="0.7665" arrival="79.00">
        <route edges="E_in N_out"/>
    </vehicle>

    <vehicle id="flow_flatten_r_E_to_W.2" type="container" depart="30.00" departLane="1" departPos="40.2647" departSpeed="3.1627" speedFactor="0.7845" arrival="84.00">
        <route edges="E_in W_out"/>
    </vehicle>

    <vehicle id="flow_flatten_r_E_to_S.1" type="container" depart="39.00" departLane="1" departPos="134.7579" departSpeed="6.2634" speedFactor="0.9146" arrival="87.00">
        <route edges="E_in S_out"/>
    </vehicle>

    <vehicle id="flow_flatten_r_E_to_W.3" type="moto" depart="44.00" departLane="0" departPos="19.2493" departSpeed="11.1917" speedFactor="1.2027" arrival="91.00">
        <route edges="E_in W_out"/>
    </vehicle>

    <vehicle id="flow_flatten_r_W_to_E.3" type="bus" depart="46.00" departLane="1" departPos="23.5668" departSpeed="9.4296" speedFactor="0.9525" arrival="91.00">
        <route edges="W_in E_out"/>
    </vehicle>

    <vehicle id="flow_flatten_r_E_to_W.5" type="moto" depart="74.00" departLane="1" departPos="155.3486" departSpeed="12.6235" speedFactor="1.0668" arrival="93.00">
        <route edges="E_in W_out"/>
    </vehicle>

    <vehicle id="flow_flatten_r_W_to_N.0" type="container" depart="0.00" departLane="1" departPos="182.8773" departSpeed="4.6108" speedFactor="0.8227" arrival="94.00">
        <route edges="W_in N_out"/>
    </vehicle>

    <vehicle id="flow_flatten_r_E_to_W.4" type="moto" depart="59.00" departLane="1" departPos="91.5182" departSpeed="12.9767" speedFactor="0.9517" arrival="96.00">
        <route edges="E_in W_out"/>
    </vehicle>

    <vehicle id="flow_flatten_r_W_to_E.4" type="moto" depart="61.00" departLane="1" departPos="65.5698" departSpeed="2.068" speedFactor="0.8882" arrival="96.00">
        <route edges="W_in E_out"/>
    </vehicle>

    <vehicle id="flow_flatten_r_E_to_E.1" type="moto" depart="75.00" departLane="0" departPos="177.4982" departSpeed="8.3004" speedFactor="1.1413" arrival="96.00">
        <route edges="E_in E_out"/>
    </vehicle>

    <vehicle id="flow_flatten_r_W_to_W.0" type="moto" depart="0.00" departLane="0" departPos="16.8786" departSpeed="4.7577" speedFactor="0.8472" arrival="101.00">
        <route edges="W_in W_out"/>
    </vehicle>

    <vehicle id="flow_flatten_r_W_to_E.5" type="car" depart="76.00" departLane="1" departPos="152.0111" departSpeed="4.5723" speedFactor="0.8975" arrival="102.00">
        <route edges="W_in E_out"/>
    </vehicle>

    <vehicle id="flow_flatten_r_E_to_N.2" type="truck" depart="74.00" departLane="0" departPos="78.0885" departSpeed="11.2761" speedFactor="0.8923" arrival="104.00">
        <route edges="E_in N_out"/>
    </vehicle>

    <vehicle id="flow_flatten_r_W_to_N.1" type="bus" depart="40.00" departLane="1" departPos="108.7646" departSpeed="10.3425" speedFactor="0.8515" arrival="106.00">
        <route edges="W_in N_out"/>
    </vehicle>

    <vehicle id="flow_flatten_r_S_to_N.4" type="moto" depart="43.00" departLane="1" departPos="77.9408" departSpeed="4.4335" speedFactor="1.0764" arrival="108.00">
        <route edges="S_in N_out"/>
    </vehicle>

    <vehicle id="flow_flatten_r_N_to_S.3" type="moto" depart="33.00" departLane="0" departPos="69.2372" departSpeed="6.0614" speedFactor="1.0453" arrival="109.00">
        <route edges="N_in S_out"/>
    </vehicle>

    <vehicle id="flow_flatten_r_N_to_S.4" type="car" depart="44.00" departLane="0" departPos="148.0778" departSpeed="9.6399" speedFactor="1.0479" arrival="109.00">
        <route edges="N_in S_out"/>
    </vehicle>

    <vehicle id="flow_flatten_r_S_to_E.1" type="bus" depart="27.00" departLane="0" departPos="16.309" departSpeed="4.5507" speedFactor="0.9657" arrival="113.00">
        <route edges="S_in E_out"/>
    </vehicle>

    <vehicle id="flow_flatten_r_N_to_S.5" type="emergency" depart="55.00" departLane="1" departPos="121.5569" departSpeed="1.5714" speedFactor="1.0989" arrival="113.00">
        <route edges="N_in S_out"/>
    </vehicle>

    <vehicle id="flow_flatten_r_N_to_W.2" type="truck" depart="55.00" departLane="0" departPos="104.1356" departSpeed="12.3393" speedFactor="0.9396" arrival="114.00">
        <route edges="N_in W_out"/>
    </vehicle>

    <vehicle id="flow_flatten_r_S_to_E.2" type="truck" depart="53.00" departLane="0" departPos="160.3044" departSpeed="7.4312" speedFactor="0.9194" arrival="116.00">
        <route edges="S_in E_out"/>
    </vehicle>

    <vehicle id="flow_flatten_r_N_to_S.6" type="moto" depart="65.00" departLane="1" departPos="2.2119" departSpeed="9.3975" speedFactor="1.0265" arrival="116.00">
        <route edges="N_in S_out"/>
    </vehicle>

    <vehicle id="flow_flatten_r_N_to_S.7" type="moto" depart="76.00" departLane="1" departPos="137.1078" departSpeed="4.9645" speedFactor="1.1043" arrival="117.00">
        <route edges="N_in S_out"/>
    </vehicle>

    <vehicle id="flow_flatten_r_S_to_E.3" type="car" depart="79.00" departLane="1" departPos="47.4954" departSpeed="4.3691" speedFactor="0.9797" arrival="118.00">
        <route edges="S_in E_out"/>
    </vehicle>

    <vehicle id="flow_flatten_r_S_to_N.8" type="moto" depart="85.00" departLane="0" departPos="6.5659" departSpeed="1.2493" speedFactor="1.0626" arrival="118.00">
        <route edges="S_in N_out"/>
    </vehicle>

    <vehicle id="flow_flatten_r_S_to_N.6" type="moto" depart="64.00" departLane="0" departPos="64.2471" departSpeed="6.1278" speedFactor="0.9374" arrival="123.00">
        <route edges="S_in N_out"/>
    </vehicle>

    <vehicle id="flow_flatten_r_N_to_S.8" type="moto" depart="87.00" departLane="1" departPos="22.6438" departSpeed="11.0035" speedFactor="1.0682" arrival="123.00">
        <route edges="N_in S_out"/>
    </vehicle>

    <vehicle id="flow_flatten_r_S_to_N.9" type="moto" depart="96.00" departLane="0" departPos="36.1365" departSpeed="9.6727" speedFactor="1.1705" arrival="124.00">
        <route edges="S_in N_out"/>
    </vehicle>

    <vehicle id="flow_flatten_r_S_to_N.5" type="moto" depart="53.00" departLane="1" departPos="65.3279" departSpeed="12.9273" speedFactor="1.0283" arrival="126.00">
        <route edges="S_in N_out"/>
    </vehicle>

    <vehicle id="flow_flatten_r_N_to_W.3" type="moto" depart="83.00" departLane="1" departPos="150.3544" departSpeed="2.8414" speedFactor="0.8003" arrival="126.00">
        <route edges="N_in W_out"/>
    </vehicle>

    <vehicle id="flow_flatten_r_S_to_S.1" type="moto" depart="53.00" departLane="1" departPos="111.6918" departSpeed="5.9674" speedFactor="0.9964" arrival="128.00">
        <route edges="S_in S_out"/>
    </vehicle>

    <vehicle id="flow_flatten_r_W_to_S.2" type="moto" depart="75.00" departLane="1" departPos="29.0743" departSpeed="2.6017" speedFactor="0.9020" arrival="133.00">
        <route edges="W_in S_out"/>
    </vehicle>

    <vehicle id="flow_flatten_r_W_to_E.6" type="moto" depart="92.00" departLane="0" departPos="150.3232" departSpeed="5.3098" speedFactor="0.8878" arrival="135.00">
        <route edges="W_in E_out"/>
    </vehicle>

    <vehicle id="flow_flatten_r_N_to_E.2" type="container" depart="53.00" departLane="0" departPos="167.2268" departSpeed="1.9044" speedFactor="0.9706" arrival="137.00">
        <route edges="N_in E_out"/>
    </vehicle>

    <vehicle id="flow_flatten_r_W_to_W.1" type="moto" depart="76.00" departLane="0" departPos="24.5526" departSpeed="8.2195" speedFactor="1.0203" arrival="138.00">
        <route edges="W_in W_out"/>
    </vehicle>

    <vehicle id="flow_flatten_r_W_to_E.7" type="moto" depart="107.00" departLane="1" departPos="109.1161" departSpeed="2.8633" speedFactor="0.9730" arrival="138.00">
        <route edges="W_in E_out"/>
    </vehicle>

    <vehicle id="flow_flatten_r_E_to_W.6" type="moto" depart="88.00" departLane="1" departPos="111.5719" departSpeed="0.0849" speedFactor="0.8330" arrival="139.00">
        <route edges="E_in W_out"/>
    </vehicle>

    <vehicle id="flow_flatten_r_E_to_N.3" type="truck" depart="111.00" departLane="1" departPos="90.8186" departSpeed="6.4015" speedFactor="0.9670" arrival="139.00">
        <route edges="E_in N_out"/>
    </vehicle>

    <vehicle id="flow_flatten_r_W_to_S.3" type="moto" depart="112.00" departLane="1" departPos="55.6396" departSpeed="5.2942" speedFactor="1.1157" arrival="139.00">
        <route edges="W_in S_out"/>
    </vehicle>

    <vehicle id="flow_flatten_r_E_to_S.2" type="moto" depart="77.00" departLane="0" departPos="18.5245" departSpeed="1.7505" speedFactor="1.0983" arrival="141.00">
        <route edges="E_in S_out"/>
    </vehicle>

    <vehicle id="flow_flatten_r_W_to_N.2" type="moto" depart="79.00" departLane="0" departPos="36.1232" departSpeed="6.53" speedFactor="1.0085" arrival="141.00">
        <route edges="W_in N_out"/>
    </vehicle>

    <vehicle id="flow_flatten_r_E_to_W.7" type="truck" depart="103.00" departLane="1" departPos="109.812" departSpeed="0.1725" speedFactor="1.0651" arrival="146.00">
        <route edges="E_in W_out"/>
    </vehicle>

    <vehicle id="flow_flatten_r_W_to_E.8" type="bus" depart="122.00" departLane="0" departPos="88.8236" departSpeed="7.2372" speedFactor="0.9032" arrival="149.00">
        <route edges="W_in E_out"/>
    </vehicle>

    <vehicle id="flow_flatten_r_E_to_W.8" type="container" depart="117.00" departLane="1" departPos="169.4272" departSpeed="3.381" speedFactor="1.0240" arrival="152.00">
        <route edges="E_in W_out"/>
    </vehicle>

    <vehicle id="flow_flatten_r_E_to_W.9" type="moto" depart="132.00" departLane="0" departPos="184.7562" departSpeed="2.3459" speedFactor="1.0039" arrival="152.00">
        <route edges="E_in W_out"/>
    </vehicle>

    <vehicle id="flow_flatten_r_E_to_S.3" type="moto" depart="115.00" departLane="1" departPos="60.4969" departSpeed="2.8955" speedFactor="0.9645" arrival="153.00">
        <route edges="E_in S_out"/>
    </vehicle>

    <vehicle id="flow_flatten_r_W_to_N.3" type="moto" depart="118.00" departLane="0" departPos="174.2328" departSpeed="4.9117" speedFactor="0.9897" arrival="156.00">
        <route edges="W_in N_out"/>
    </vehicle>

    <vehicle id="flow_flatten_r_S_to_N.10" type="emergency" depart="106.00" departLane="0" departPos="144.2877" departSpeed="4.7827" speedFactor="1.1380" arrival="163.00">
        <route edges="S_in N_out"/>
    </vehicle>

    <vehicle id="flow_flatten_r_N_to_S.9" type="car" depart="98.00" departLane="1" departPos="20.793" departSpeed="6.0156" speedFactor="1.0972" arrival="165.00">
        <route edges="N_in S_out"/>
    </vehicle>

    <vehicle id="flow_flatten_r_S_to_E.4" type="moto" depart="105.00" departLane="0" departPos="43.7958" departSpeed="2.895" speedFactor="0.9385" arrival="167.00">
        <route edges="S_in E_out"/>
    </vehicle>

    <vehicle id="flow_flatten_r_S_to_N.11" type="moto" depart="117.00" departLane="1" departPos="140.1793" departSpeed="0.7762" speedFactor="1.1571" arrival="167.00">
        <route edges="S_in N_out"/>
    </vehicle>

    <vehicle id="flow_flatten_r_N_to_W.4" type="moto" depart="110.00" departLane="0" departPos="110.6444" departSpeed="6.3526" speedFactor="0.8391" arrival="170.00">
        <route edges="N_in W_out"/>
    </vehicle>

    <vehicle id="flow_flatten_r_S_to_E.5" type="moto" depart="131.00" departLane="0" departPos="131.4461" departSpeed="13.0096" speedFactor="1.0387" arrival="170.00">
        <route edges="S_in E_out"/>
    </vehicle>

    <vehicle id="flow_flatten_r_S_to_N.7" type="moto" depart="75.00" departLane="1" departPos="159.9604" departSpeed="6.6851" speedFactor="1.0390" arrival="173.00">
        <route edges="S_in N_out"/>
    </vehicle>

    <vehicle id="flow_flatten_r_N_to_S.10" type="moto" depart="109.00" departLane="1" departPos="7.4986" departSpeed="4.556" speedFactor="1.2976" arrival="173.00">
        <route edges="N_in S_out"/>
    </vehicle>

    <vehicle id="flow_flatten_r_N_to_S.11" type="bus" depart="120.00" departLane="0" departPos="151.3306" departSpeed="9.5843" speedFactor="0.9315" arrival="174.00">
        <route edges="N_in S_out"/>
    </vehicle>

    <vehicle id="flow_flatten_r_S_to_N.12" type="car" depart="128.00" departLane="1" departPos="100.3851" departSpeed="2.636" speedFactor="1.0323" arrival="174.00">
        <route edges="S_in N_out"/>
    </vehicle>

    <vehicle id="flow_flatten_r_N_to_S.12" type="moto" depart="130.00" departLane="1" departPos="45.6162" departSpeed="9.2884" speedFactor="1.0281" arrival="176.00">
        <route edges="N_in S_out"/>
    </vehicle>

    <vehicle id="flow_flatten_r_S_to_W.2" type="moto" depart="54.00" departLane="1" departPos="112.3734" departSpeed="5.6841" speedFactor="1.1432" arrival="178.00">
        <route edges="S_in W_out"/>
    </vehicle>

    <vehicle id="flow_flatten_r_N_to_W.5" type="bus" depart="137.00" departLane="1" departPos="60.9644" departSpeed="6.1389" speedFactor="1.0325" arrival="179.00">
        <route edges="N_in W_out"/>
    </vehicle>

    <vehicle id="flow_flatten_r_S_to_N.13" type="bus" depart="138.00" departLane="1" departPos="27.2886" departSpeed="11.2649" speedFactor="0.8196" arrival="180.00">
        <route edges="S_in N_out"/>
    </vehicle>

    <vehicle id="flow_flatten_r_N_to_E.4" type="moto" depart="105.00" departLane="0" departPos="178.6166" departSpeed="5.9818" speedFactor="0.9618" arrival="182.00">
        <route edges="N_in E_out"/>
    </vehicle>

    <vehicle id="flow_flatten_r_N_to_S.15" type="moto" depart="163.00" departLane="0" departPos="184.144" departSpeed="0.6501" speedFactor="0.8917" arrival="184.00">
        <route edges="N_in S_out"/>
    </vehicle>

    <vehicle id="flow_flatten_r_S_to_N.14" type="truck" depart="149.00" departLane="1" departPos="113.0073" departSpeed="10.4411" speedFactor="0.9137" arrival="189.00">
        <route edges="S_in N_out"/>
    </vehicle>

    <vehicle id="flow_flatten_r_S_to_W.3" type="bus" depart="81.00" departLane="1" departPos="41.8299" departSpeed="11.8205" speedFactor="0.9040" arrival="190.00">
        <route edges="S_in W_out"/>
    </vehicle>

    <vehicle id="flow_flatten_r_S_to_S.2" type="moto" depart="106.00" departLane="1" departPos="69.3051" departSpeed="4.4852" speedFactor="1.0413" arrival="192.00">
        <route edges="S_in S_out"/>
    </vehicle>

    <vehicle id="flow_flatten_r_S_to_W.5" type="moto" depart="134.00" departLane="0" departPos="114.5714" departSpeed="12.5412" speedFactor="1.1421" arrival="192.00">
        <route edges="S_in W_out"/>
    </vehicle>

    <vehicle id="flow_flatten_r_S_to_E.6" type="car" depart="157.00" departLane="0" departPos="44.9537" departSpeed="5.2975" speedFactor="0.8868" arrival="192.00">
        <route edges="S_in E_out"/>
    </vehicle>

    <vehicle id="flow_flatten_r_W_to_W.2" type="moto" depart="151.00" departLane="1" departPos="158.7036" departSpeed="1.2982" speedFactor="1.1365" arrival="197.00">
        <route edges="W_in W_out"/>
    </vehicle>

    <vehicle id="flow_flatten_r_W_to_E.9" type="moto" depart="137.00" departLane="1" departPos="66.1547" departSpeed="12.3063" speedFactor="1.0387" arrival="198.00">
        <route edges="W_in E_out"/>
    </vehicle>

    <vehicle id="flow_flatten_r_W_to_S.4" type="moto" depart="150.00" departLane="1" departPos="21.3277" departSpeed="7.6227" speedFactor="1.0699" arrival="198.00">
        <route edges="W_in S_out"/>
    </vehicle>

    <vehicle id="flow_flatten_r_N_to_N.1" type="bus" depart="53.00" departLane="0" departPos="8.0759" departSpeed="5.7989" speedFactor="0.8691" arrival="199.00">
        <route edges="N_in N_out"/>
    </vehicle>

    <vehicle id="flow_flatten_r_E_to_W.10" type="bus" depart="147.00" departLane="0" departPos="129.443" departSpeed="7.3489" speedFactor="0.9784" arrival="203.00">
        <route edges="E_in W_out"/>
    </vehicle>

    <vehicle id="flow_flatten_r_E_to_N.4" type="moto" depart="148.00" departLane="1" departPos="41.7947" departSpeed="12.5775" speedFactor="1.0140" arrival="203.00">
        <route edges="E_in N_out"/>
    </vehicle>

    <vehicle id="flow_flatten_r_W_to_E.10" type="truck" depart="152.00" departLane="0" departPos="22.6696" departSpeed="7.7669" speedFactor="1.0532" arrival="205.00">
        <route edges="W_in E_out"/>
    </vehicle>

    <vehicle id="flow_flatten_r_E_to_W.11" type="moto" depart="161.00" departLane="1" departPos="22.618" departSpeed="0.229" speedFactor="1.2148" arrival="205.00">
        <route edges="E_in W_out"/>
    </vehicle>

    <vehicle id="flow_flatten_r_E_to_S.4" type="moto" depart="153.00" departLane="1" departPos="161.9597" departSpeed="5.7422" speedFactor="1.2552" arrival="206.00">
        <route edges="E_in S_out"/>
    </vehicle>

    <vehicle id="flow_flatten_r_W_to_S.5" type="car" depart="187.00" departLane="1" departPos="175.2569" departSpeed="6.893" speedFactor="0.9559" arrival="207.00">
        <route edges="W_in S_out"/>
    </vehicle>

    <vehicle id="flow_flatten_r_E_to_E.2" type="moto" depart="150.00" departLane="0" departPos="28.3376" departSpeed="9.4826" speedFactor="1.0047" arrival="208.00">
        <route edges="E_in E_out"/>
    </vehicle>

    <vehicle id="flow_flatten_r_W_to_N.4" type="car" depart="157.00" departLane="0" departPos="184.0677" departSpeed="0.1303" speedFactor="0.9653" arrival="210.00">
        <route edges="W_in N_out"/>
    </vehicle>

    <vehicle id="flow_flatten_r_N_to_S.17" type="moto" depart="185.00" departLane="0" departPos="176.9698" departSpeed="8.5646" speedFactor="1.0747" arrival="210.00">
        <route edges="N_in S_out"/>
    </vehicle>

    <vehicle id="flow_flatten_r_S_to_N.15" type="moto" depart="159.00" departLane="1" departPos="138.898" departSpeed="7.3199" speedFactor="1.0856" arrival="211.00">
        <route edges="S_in N_out"/>
    </vehicle>

    <vehicle id="flow_flatten_r_N_to_S.13" type="moto" depart="141.00" departLane="1" departPos="47.2903" departSpeed="0.9163" speedFactor="1.0448" arrival="215.00">
        <route edges="N_in S_out"/>
    </vehicle>

    <vehicle id="flow_flatten_r_N_to_E.3" type="car" depart="79.00" departLane="1" departPos="37.0366" departSpeed="3.0894" speedFactor="0.9759" arrival="217.00">
        <route edges="N_in E_out"/>
    </vehicle>

    <vehicle id="flow_flatten_r_N_to_N.2" type="moto" depart="106.00" departLane="0" departPos="50.1096" departSpeed="5.2402" speedFactor="1.0873" arrival="217.00">
        <route edges="N_in N_out"/>
    </vehicle>

    <vehicle id="flow_flatten_r_S_to_N.16" type="car" depart="170.00" departLane="1" departPos="80.4314" departSpeed="9.0929" speedFactor="0.8047" arrival="217.00">
        <route edges="S_in N_out"/>
    </vehicle>

    <vehicle id="flow_flatten_r_N_to_E.5" type="car" depart="131.00" departLane="0" departPos="77.131" departSpeed="6.2282" speedFactor="0.8850" arrival="223.00">
        <route edges="N_in E_out"/>
    </vehicle>

    <vehicle id="flow_flatten_r_N_to_S.14" type="truck" depart="152.00" departLane="1" departPos="11.4261" departSpeed="12.0374" speedFactor="0.9615" arrival="225.00">
        <route edges="N_in S_out"/>
    </vehicle>

    <vehicle id="flow_flatten_r_N_to_E.6" type="bus" depart="158.00" departLane="0" departPos="120.4896" departSpeed="11.6845" speedFactor="0.9819" arrival="231.00">
        <route edges="N_in E_out"/>
    </vehicle>

    <vehicle id="flow_flatten_r_N_to_W.6" type="truck" depart="165.00" departLane="1" departPos="127.7831" departSpeed="7.9937" speedFactor="0.9465" arrival="231.00">
        <route edges="N_in W_out"/>
    </vehicle>

    <vehicle id="flow_flatten_r_N_to_S.16" type="moto" depart="174.00" departLane="0" departPos="99.1978" departSpeed="8.3041" speedFactor="1.1523" arrival="233.00">
        <route edges="N_in S_out"/>
    </vehicle>

    <vehicle id="flow_flatten_r_N_to_N.3" type="moto" depart="159.00" departLane="1" departPos="0.9771" departSpeed="7.9479" speedFactor="0.9282" arrival="234.00">
        <route edges="N_in N_out"/>
    </vehicle>

    <vehicle id="flow_flatten_r_N_to_W.7" type="bus" depart="192.00" departLane="0" departPos="111.5109" departSpeed="5.7004" speedFactor="0.9234" arrival="234.00">
        <route edges="N_in W_out"/>
    </vehicle>

    <vehicle id="flow_flatten_r_N_to_S.19" type="moto" depart="206.00" departLane="1" departPos="86.0674" departSpeed="9.5223" speedFactor="1.2172" arrival="235.00">
        <route edges="N_in S_out"/>
    </vehicle>

    <vehicle id="flow_flatten_r_N_to_S.18" type="car" depart="195.00" departLane="1" departPos="43.9189" departSpeed="6.9577" speedFactor="1.0262" arrival="237.00">
        <route edges="N_in S_out"/>
    </vehicle>

    <vehicle id="flow_flatten_r_N_to_E.7" type="moto" depart="184.00" departLane="1" departPos="20.6867" departSpeed="9.4837" speedFactor="0.8416" arrival="239.00">
        <route edges="N_in E_out"/>
    </vehicle>

    <vehicle id="flow_flatten_r_N_to_E.8" type="moto" depart="210.00" departLane="0" departPos="67.2783" departSpeed="9.6267" speedFactor="1.0821" arrival="241.00">
        <route edges="N_in E_out"/>
    </vehicle>

    <vehicle id="flow_flatten_r_N_to_S.20" type="car" depart="217.00" departLane="0" departPos="117.1562" departSpeed="0.2624" speedFactor="1.0423" arrival="241.00">
        <route edges="N_in S_out"/>
    </vehicle>

    <vehicle id="flow_flatten_r_N_to_N.4" type="moto" depart="212.00" departLane="0" departPos="109.4469" departSpeed="2.1347" speedFactor="1.1149" arrival="242.00">
        <route edges="N_in N_out"/>
    </vehicle>

    <vehicle id="flow_flatten_r_N_to_S.21" type="moto" depart="228.00" departLane="1" departPos="141.6365" departSpeed="14.6565" speedFactor="1.0628" arrival="249.00">
        <route edges="N_in S_out"/>
    </vehicle>

    <vehicle id="flow_flatten_r_S_to_W.4" type="truck" depart="108.00" departLane="1" departPos="38.2894" departSpeed="0.4392" speedFactor="1.0019" arrival="250.00">
        <route edges="S_in W_out"/>
    </vehicle>

    <vehicle id="flow_flatten_r_W_to_E.12" type="car" depart="183.00" departLane="1" departPos="12.5958" departSpeed="2.3817" speedFactor="0.9838" arrival="254.00">
        <route edges="W_in E_out"/>
    </vehicle>

    <vehicle id="flow_flatten_r_E_to_W.12" type="car" depart="176.00" departLane="1" departPos="80.6527" departSpeed="2.028" speedFactor="0.9718" arrival="255.00">
        <route edges="E_in W_out"/>
    </vehicle>

    <vehicle id="flow_flatten_r_W_to_E.11" type="moto" depart="168.00" departLane="0" departPos="39.6761" departSpeed="6.2776" speedFactor="0.8543" arrival="257.00">
        <route edges="W_in E_out"/>
    </vehicle>

    <vehicle id="flow_flatten_r_E_to_N.5" type="car" depart="185.00" departLane="1" departPos="36.0857" departSpeed="3.5424" speedFactor="0.8963" arrival="258.00">
        <route edges="E_in N_out"/>
    </vehicle>

    <vehicle id="flow_flatten_r_E_to_W.13" type="bus" depart="191.00" departLane="1" departPos="147.9348" departSpeed="3.7792" speedFactor="0.9363" arrival="258.00">
        <route edges="E_in W_out"/>
    </vehicle>
