<?xml version="1.0" encoding="UTF-8"?>

<!-- generated on 2025-12-08 21:41:02 by Eclipse SUMO sumo Version 1.18.0
<configuration xmlns:xsi="http://www.w3.org/2001/XMLSchema-instance" xsi:noNamespaceSchemaLocation="http://sumo.dlr.de/xsd/sumoConfiguration.xsd">

    <input>
        <net-file value="nets/60p2k/net.net.xml"/>
        <route-files value="nets/60p2k/route_temp_281_124147880884016_33742306.rou.xml"/>
    </input>

    <output>
        <summary-output value="result_ddqn_1.9_0.4/summary_ep_5.xml"/>
        <tripinfo-output value="result_ddqn_1.9_0.4/tripinfo_ep_5.xml"/>
        <vehroute-output value="result_ddqn_1.9_0.4/vehroute_ep_5.xml"/>
    </output>

    <time>
        <begin value="0"/>
    </time>

    <report>
        <verbose value="true"/>
        <no-warnings value="true"/>
        <no-step-log value="true"/>
    </report>

    <traci_server>
        <remote-port value="38869"/>
    </traci_server>

    <gui_only>
        <gui-settings-file value="nets/60p2k/gui-settings.xml"/>
        <quit-on-end value="true"/>
    </gui_only>

</configuration>
-->

<tripinfos xmlns:xsi="http://www.w3.org/2001/XMLSchema-instance" xsi:noNamespaceSchemaLocation="http://sumo.dlr.de/xsd/tripinfo_file.xsd">
    <tripinfo id="flow_8_phase1_S_uturn.0" depart="0.00" departLane="S_in_0" departPos="120.11" departSpeed="4.48" departDelay="0.00" arrival="24.00" arrivalLane="S_out_1" arrivalPos="189.60" arrivalSpeed="13.35" duration="24.00" routeLength="263.76" waitingTime="0.00" waitingCount="0" stopTime="0.00" timeLoss="4.90" rerouteNo="0" devices="vehroute_flow_8_phase1_S_uturn.0 tripinfo_flow_8_phase1_S_uturn.0" vType="moto" speedFactor="1.05" vaporized=""/>
    <tripinfo id="flow_5_phase1_S_straight.0" depart="0.00" departLane="S_in_1" departPos="107.37" departSpeed="7.21" departDelay="0.00" arrival="25.00" arrivalLane="N_out_1" arrivalPos="189.60" arrivalSpeed="15.89" duration="25.00" routeLength="292.63" waitingTime="0.00" waitingCount="0" stopTime="0.00" timeLoss="6.23" rerouteNo="0" devices="vehroute_flow_5_phase1_S_straight.0 tripinfo_flow_5_phase1_S_straight.0" vType="moto" speedFactor="1.15" vaporized=""/>
    <tripinfo id="flow_6_phase1_S_left.0" depart="0.00" departLane="S_in_1" departPos="166.01" departSpeed="0.74" departDelay="0.00" arrival="25.00" arrivalLane="W_out_1" arrivalPos="189.60" arrivalSpeed="11.97" duration="25.00" routeLength="232.54" waitingTime="0.00" waitingCount="0" stopTime="0.00" timeLoss="4.34" rerouteNo="0" devices="vehroute_flow_6_phase1_S_left.0 tripinfo_flow_6_phase1_S_left.0" vType="moto" speedFactor="0.88" vaporized=""/>
    <tripinfo id="flow_11_phase1_E_right.0" depart="0.00" departLane="N_in_1" departPos="144.95" departSpeed="4.02" departDelay="0.00" arrival="35.00" arrivalLane="E_out_1" arrivalPos="189.60" arrivalSpeed="12.67" duration="35.00" routeLength="253.60" waitingTime="3.00" waitingCount="1" stopTime="0.00" timeLoss="14.91" rerouteNo="0" devices="vehroute_flow_11_phase1_E_right.0 tripinfo_flow_11_phase1_E_right.0" vType="bus" speedFactor="0.96" vaporized=""/>
    <tripinfo id="flow_12_phase1_E_uturn.0" depart="0.00" departLane="E_in_0" departPos="129.89" departSpeed="13.76" departDelay="0.00" arrival="38.00" arrivalLane="E_out_1" arrivalPos="189.60" arrivalSpeed="14.20" duration="38.00" routeLength="253.98" waitingTime="11.00" waitingCount="2" stopTime="0.00" timeLoss="19.11" rerouteNo="0" devices="vehroute_flow_12_phase1_E_uturn.0 tripinfo_flow_12_phase1_E_uturn.0" vType="moto" speedFactor="1.03" vaporized=""/>
    <tripinfo id="flow_3_phase1_N_right.0" depart="0.00" departLane="E_in_0" departPos="103.38" departSpeed="3.75" departDelay="0.00" arrival="39.00" arrivalLane="W_out_1" arrivalPos="189.60" arrivalSpeed="14.94" duration="39.00" routeLength="296.62" waitingTime="7.00" waitingCount="1" stopTime="0.00" timeLoss="19.37" rerouteNo="0" devices="vehroute_flow_3_phase1_N_right.0 tripinfo_flow_3_phase1_N_right.0" vType="car" speedFactor="1.09" vaporized=""/>
    <tripinfo id="flow_15_phase1_W_right.0" depart="0.00" departLane="W_in_1" departPos="45.77" departSpeed="6.73" departDelay="0.00" arrival="39.00" arrivalLane="S_out_0" arrivalPos="189.60" arrivalSpeed="10.73" duration="39.00" routeLength="342.46" waitingTime="3.00" waitingCount="1" stopTime="0.00" timeLoss="8.41" rerouteNo="0" devices="vehroute_flow_15_phase1_W_right.0 tripinfo_flow_15_phase1_W_right.0" vType="moto" speedFactor="0.85" vaporized=""/>
    <tripinfo id="flow_9_phase1_E_straight.0" depart="0.00" departLane="E_in_0" departPos="168.29" departSpeed="9.83" departDelay="0.00" arrival="41.00" arrivalLane="W_out_0" arrivalPos="189.60" arrivalSpeed="11.95" duration="41.00" routeLength="231.71" waitingTime="13.00" waitingCount="1" stopTime="0.00" timeLoss="21.86" rerouteNo="0" devices="vehroute_flow_9_phase1_E_straight.0 tripinfo_flow_9_phase1_E_straight.0" vType="truck" speedFactor="0.90" vaporized=""/>
    <tripinfo id="flow_14_phase1_W_left.0" depart="0.00" departLane="E_in_1" departPos="42.31" departSpeed="3.71" departDelay="0.00" arrival="43.00" arrivalLane="W_out_0" arrivalPos="189.60" arrivalSpeed="13.32" duration="43.00" routeLength="357.69" waitingTime="0.00" waitingCount="0" stopTime="0.00" timeLoss="16.75" rerouteNo="0" devices="vehroute_flow_14_phase1_W_left.0 tripinfo_flow_14_phase1_W_left.0" vType="moto" speedFactor="1.01" vaporized=""/>
    <tripinfo id="flow_9_phase1_E_straight.1" depart="13.00" departLane="E_in_1" departPos="58.36" departSpeed="11.07" departDelay="0.12" arrival="44.00" arrivalLane="W_out_0" arrivalPos="189.60" arrivalSpeed="14.99" duration="31.00" routeLength="341.64" waitingTime="0.00" waitingCount="0" stopTime="0.00" timeLoss="9.13" rerouteNo="0" devices="vehroute_flow_9_phase1_E_straight.1 tripinfo_flow_9_phase1_E_straight.1" vType="moto" speedFactor="1.16" vaporized=""/>
    <tripinfo id="flow_16_phase1_W_uturn.0" depart="0.00" departLane="W_in_1" departPos="135.67" departSpeed="1.28" departDelay="0.00" arrival="45.00" arrivalLane="W_out_1" arrivalPos="189.60" arrivalSpeed="13.44" duration="45.00" routeLength="248.20" waitingTime="16.00" waitingCount="2" stopTime="0.00" timeLoss="26.51" rerouteNo="0" devices="vehroute_flow_16_phase1_W_uturn.0 tripinfo_flow_16_phase1_W_uturn.0" vType="moto" speedFactor="1.04" vaporized=""/>
    <tripinfo id="flow_10_phase1_E_left.0" depart="0.00" departLane="E_in_0" departPos="44.88" departSpeed="7.69" departDelay="0.00" arrival="47.00" arrivalLane="S_out_1" arrivalPos="189.60" arrivalSpeed="13.74" duration="47.00" routeLength="353.67" waitingTime="1.00" waitingCount="1" stopTime="0.00" timeLoss="20.52" rerouteNo="0" devices="vehroute_flow_10_phase1_E_left.0 tripinfo_flow_10_phase1_E_left.0" vType="truck" speedFactor="1.02" vaporized=""/>
    <tripinfo id="flow_5_phase1_S_straight.1" depart="14.00" departLane="S_in_1" departPos="121.65" departSpeed="2.93" departDelay="0.77" arrival="48.00" arrivalLane="N_out_1" arrivalPos="189.60" arrivalSpeed="14.96" duration="34.00" routeLength="278.35" waitingTime="7.00" waitingCount="1" stopTime="0.00" timeLoss="15.75" rerouteNo="0" devices="vehroute_flow_5_phase1_S_straight.1 tripinfo_flow_5_phase1_S_straight.1" vType="moto" speedFactor="1.19" vaporized=""/>
    <tripinfo id="flow_6_phase1_S_left.1" depart="34.00" departLane="S_in_1" departPos="185.21" departSpeed="4.39" departDelay="0.55" arrival="51.00" arrivalLane="W_out_1" arrivalPos="189.60" arrivalSpeed="13.48" duration="17.00" routeLength="213.34" waitingTime="0.00" waitingCount="0" stopTime="0.00" timeLoss="1.53" rerouteNo="0" devices="vehroute_flow_6_phase1_S_left.1 tripinfo_flow_6_phase1_S_left.1" vType="moto" speedFactor="1.05" vaporized=""/>
    <tripinfo id="flow_5_phase1_S_straight.2" depart="27.00" departLane="S_in_1" departPos="59.51" departSpeed="13.27" departDelay="0.54" arrival="54.00" arrivalLane="N_out_1" arrivalPos="189.60" arrivalSpeed="12.18" duration="27.00" routeLength="340.49" waitingTime="0.00" waitingCount="0" stopTime="0.00" timeLoss="1.39" rerouteNo="0" devices="vehroute_flow_5_phase1_S_straight.2 tripinfo_flow_5_phase1_S_straight.2" vType="moto" speedFactor="0.96" vaporized=""/>
    <tripinfo id="flow_7_phase1_S_right.0" depart="0.00" departLane="S_in_0" departPos="8.76" departSpeed="8.07" departDelay="0.00" arrival="57.00" arrivalLane="E_out_0" arrivalPos="189.60" arrivalSpeed="11.79" duration="57.00" routeLength="379.47" waitingTime="12.00" waitingCount="1" stopTime="0.00" timeLoss="23.44" rerouteNo="0" devices="vehroute_flow_7_phase1_S_right.0 tripinfo_flow_7_phase1_S_right.0" vType="container" speedFactor="0.85" vaporized=""/>
    <tripinfo id="flow_2_phase1_N_left.0" depart="0.00" departLane="N_in_1" departPos="8.27" departSpeed="8.33" departDelay="0.00" arrival="58.00" arrivalLane="E_out_1" arrivalPos="189.60" arrivalSpeed="13.63" duration="58.00" routeLength="390.28" waitingTime="19.00" waitingCount="2" stopTime="0.00" timeLoss="29.01" rerouteNo="0" devices="vehroute_flow_2_phase1_N_left.0 tripinfo_flow_2_phase1_N_left.0" vType="moto" speedFactor="1.02" vaporized=""/>
    <tripinfo id="flow_9_phase1_E_straight.2" depart="26.00" departLane="E_in_1" departPos="12.70" departSpeed="12.82" departDelay="0.25" arrival="60.00" arrivalLane="W_out_0" arrivalPos="189.60" arrivalSpeed="12.51" duration="34.00" routeLength="387.30" waitingTime="0.00" waitingCount="0" stopTime="0.00" timeLoss="5.67" rerouteNo="0" devices="vehroute_flow_9_phase1_E_straight.2 tripinfo_flow_9_phase1_E_straight.2" vType="moto" speedFactor="0.99" vaporized=""/>
    <tripinfo id="flow_15_phase1_W_right.1" depart="33.00" departLane="W_in_1" departPos="110.92" departSpeed="12.38" departDelay="0.16" arrival="60.00" arrivalLane="S_out_0" arrivalPos="189.60" arrivalSpeed="14.19" duration="27.00" routeLength="277.31" waitingTime="2.00" waitingCount="1" stopTime="0.00" timeLoss="7.80" rerouteNo="0" devices="vehroute_flow_15_phase1_W_right.1 tripinfo_flow_15_phase1_W_right.1" vType="moto" speedFactor="1.08" vaporized=""/>
    <tripinfo id="flow_4_phase1_N_uturn.0" depart="0.00" departLane="W_in_1" departPos="127.60" departSpeed="0.08" departDelay="0.00" arrival="64.00" arrivalLane="N_out_1" arrivalPos="189.60" arrivalSpeed="12.49" duration="64.00" routeLength="270.95" waitingTime="27.00" waitingCount="3" stopTime="0.00" timeLoss="41.36" rerouteNo="0" devices="vehroute_flow_4_phase1_N_uturn.0 tripinfo_flow_4_phase1_N_uturn.0" vType="car" speedFactor="0.92" vaporized=""/>
    <tripinfo id="flow_3_phase1_N_right.1" depart="35.00" departLane="E_in_1" departPos="108.76" departSpeed="7.65" departDelay="0.82" arrival="70.00" arrivalLane="W_out_0" arrivalPos="189.60" arrivalSpeed="10.96" duration="35.00" routeLength="291.24" waitingTime="2.00" waitingCount="1" stopTime="0.00" timeLoss="10.38" rerouteNo="0" devices="vehroute_flow_3_phase1_N_right.1 tripinfo_flow_3_phase1_N_right.1" vType="moto" speedFactor="0.88" vaporized=""/>
    <tripinfo id="flow_13_phase1_W_straight.0" depart="0.00" departLane="E_in_0" departPos="77.99" departSpeed="1.48" departDelay="0.00" arrival="71.00" arrivalLane="S_out_0" arrivalPos="189.60" arrivalSpeed="10.93" duration="71.00" routeLength="320.56" waitingTime="13.00" waitingCount="2" stopTime="0.00" timeLoss="41.25" rerouteNo="0" devices="vehroute_flow_13_phase1_W_straight.0 tripinfo_flow_13_phase1_W_straight.0" vType="container" speedFactor="0.82" vaporized=""/>
    <tripinfo id="flow_5_phase1_S_straight.3" depart="40.00" departLane="S_in_0" departPos="70.46" departSpeed="2.11" departDelay="0.31" arrival="74.00" arrivalLane="N_out_1" arrivalPos="189.60" arrivalSpeed="14.58" duration="34.00" routeLength="329.54" waitingTime="1.00" waitingCount="1" stopTime="0.00" timeLoss="11.60" rerouteNo="0" devices="vehroute_flow_5_phase1_S_straight.3 tripinfo_flow_5_phase1_S_straight.3" vType="moto" speedFactor="1.08" vaporized=""/>
    <tripinfo id="flow_1_phase1_N_straight.0" depart="0.00" departLane="E_in_0" departPos="8.62" departSpeed="8.51" departDelay="0.00" arrival="75.00" arrivalLane="E_out_0" arrivalPos="189.60" arrivalSpeed="11.60" duration="75.00" routeLength="375.25" waitingTime="12.00" waitingCount="1" stopTime="0.00" timeLoss="41.35" rerouteNo="0" devices="vehroute_flow_1_phase1_N_straight.0 tripinfo_flow_1_phase1_N_straight.0" vType="bus" speedFactor="0.86" vaporized=""/>
    <tripinfo id="flow_5_phase1_S_straight.4" depart="53.00" departLane="S_in_0" departPos="155.68" departSpeed="7.60" departDelay="0.08" arrival="81.00" arrivalLane="N_out_1" arrivalPos="189.60" arrivalSpeed="12.95" duration="28.00" routeLength="244.32" waitingTime="0.00" waitingCount="0" stopTime="0.00" timeLoss="9.65" rerouteNo="0" devices="vehroute_flow_5_phase1_S_straight.4 tripinfo_flow_5_phase1_S_straight.4" vType="container" speedFactor="0.97" vaporized=""/>
    <tripinfo id="flow_11_phase1_E_right.1" depart="33.00" departLane="N_in_0" departPos="73.90" departSpeed="8.86" departDelay="0.51" arrival="83.00" arrivalLane="E_out_1" arrivalPos="189.60" arrivalSpeed="13.14" duration="50.00" routeLength="324.65" waitingTime="15.00" waitingCount="2" stopTime="0.00" timeLoss="26.72" rerouteNo="0" devices="vehroute_flow_11_phase1_E_right.1 tripinfo_flow_11_phase1_E_right.1" vType="moto" speedFactor="1.04" vaporized=""/>
    <tripinfo id="flow_7_phase1_S_right.1" depart="33.00" departLane="S_in_1" departPos="128.68" departSpeed="2.32" departDelay="0.51" arrival="84.00" arrivalLane="E_out_0" arrivalPos="189.60" arrivalSpeed="10.51" duration="51.00" routeLength="259.55" waitingTime="11.00" waitingCount="1" stopTime="0.00" timeLoss="25.66" rerouteNo="0" devices="vehroute_flow_7_phase1_S_right.1 tripinfo_flow_7_phase1_S_right.1" vType="container" speedFactor="0.78" vaporized=""/>
    <tripinfo id="flow_2_phase1_N_left.1" depart="33.00" departLane="N_in_1" departPos="66.71" departSpeed="11.27" departDelay="0.32" arrival="85.00" arrivalLane="E_out_1" arrivalPos="189.60" arrivalSpeed="15.16" duration="52.00" routeLength="331.84" waitingTime="15.00" waitingCount="2" stopTime="0.00" timeLoss="29.68" rerouteNo="0" devices="vehroute_flow_2_phase1_N_left.1 tripinfo_flow_2_phase1_N_left.1" vType="moto" speedFactor="1.12" vaporized=""/>
    <tripinfo id="flow_11_phase1_E_right.2" depart="65.00" departLane="N_in_1" departPos="174.17" departSpeed="9.64" departDelay="0.02" arrival="86.00" arrivalLane="E_out_1" arrivalPos="189.60" arrivalSpeed="15.38" duration="21.00" routeLength="224.38" waitingTime="0.00" waitingCount="0" stopTime="0.00" timeLoss="6.26" rerouteNo="0" devices="vehroute_flow_11_phase1_E_right.2 tripinfo_flow_11_phase1_E_right.2" vType="moto" speedFactor="1.14" vaporized=""/>
    <tripinfo id="flow_2_phase1_N_left.2" depart="66.00" departLane="N_in_1" departPos="172.37" departSpeed="7.43" departDelay="0.64" arrival="88.00" arrivalLane="E_out_1" arrivalPos="189.60" arrivalSpeed="14.65" duration="22.00" routeLength="226.18" waitingTime="0.00" waitingCount="0" stopTime="0.00" timeLoss="5.96" rerouteNo="0" devices="vehroute_flow_2_phase1_N_left.2 tripinfo_flow_2_phase1_N_left.2" vType="emergency" speedFactor="1.10" vaporized=""/>
    <tripinfo id="flow_7_phase1_S_right.2" depart="65.00" departLane="S_in_1" departPos="65.57" departSpeed="2.39" departDelay="0.01" arrival="93.00" arrivalLane="E_out_0" arrivalPos="189.60" arrivalSpeed="13.78" duration="28.00" routeLength="322.66" waitingTime="0.00" waitingCount="0" stopTime="0.00" timeLoss="4.65" rerouteNo="0" devices="vehroute_flow_7_phase1_S_right.2 tripinfo_flow_7_phase1_S_right.2" vType="moto" speedFactor="1.03" vaporized=""/>
    <tripinfo id="flow_8_phase1_S_uturn.1" depart="66.00" departLane="S_in_0" departPos="161.41" departSpeed="1.49" departDelay="0.07" arrival="94.00" arrivalLane="S_out_1" arrivalPos="189.60" arrivalSpeed="13.01" duration="28.00" routeLength="222.46" waitingTime="0.00" waitingCount="0" stopTime="0.00" timeLoss="9.38" rerouteNo="0" devices="vehroute_flow_8_phase1_S_uturn.1 tripinfo_flow_8_phase1_S_uturn.1" vType="truck" speedFactor="0.94" vaporized=""/>
    <tripinfo id="flow_5_phase1_S_straight.5" depart="67.00" departLane="S_in_1" departPos="29.88" departSpeed="11.44" departDelay="0.85" arrival="97.00" arrivalLane="N_out_0" arrivalPos="189.60" arrivalSpeed="13.46" duration="30.00" routeLength="370.12" waitingTime="0.00" waitingCount="0" stopTime="0.00" timeLoss="3.44" rerouteNo="0" devices="vehroute_flow_5_phase1_S_straight.5 tripinfo_flow_5_phase1_S_straight.5" vType="moto" speedFactor="1.03" vaporized=""/>
    <tripinfo id="flow_6_phase1_S_left.2" depart="67.00" departLane="S_in_0" departPos="149.69" departSpeed="1.61" departDelay="0.10" arrival="98.00" arrivalLane="W_out_1" arrivalPos="189.60" arrivalSpeed="12.01" duration="31.00" routeLength="248.86" waitingTime="0.00" waitingCount="0" stopTime="0.00" timeLoss="9.75" rerouteNo="0" devices="vehroute_flow_6_phase1_S_left.2 tripinfo_flow_6_phase1_S_left.2" vType="truck" speedFactor="0.89" vaporized=""/>
    <tripinfo id="flow_5_phase1_S_straight.6" depart="80.00" departLane="S_in_0" departPos="114.62" departSpeed="11.28" departDelay="0.62" arrival="100.00" arrivalLane="N_out_0" arrivalPos="189.60" arrivalSpeed="15.16" duration="20.00" routeLength="285.38" waitingTime="0.00" waitingCount="0" stopTime="0.00" timeLoss="0.94" rerouteNo="0" devices="vehroute_flow_5_phase1_S_straight.6 tripinfo_flow_5_phase1_S_straight.6" vType="moto" speedFactor="1.10" vaporized=""/>
    <tripinfo id="flow_13_phase1_W_straight.1" depart="14.00" departLane="E_in_1" departPos="52.87" departSpeed="0.43" departDelay="0.62" arrival="119.00" arrivalLane="S_out_1" arrivalPos="189.60" arrivalSpeed="14.84" duration="105.00" routeLength="345.68" waitingTime="53.00" waitingCount="2" stopTime="0.00" timeLoss="81.83" rerouteNo="0" devices="vehroute_flow_13_phase1_W_straight.1 tripinfo_flow_13_phase1_W_straight.1" vType="car" speedFactor="1.12" vaporized=""/>
    <tripinfo id="flow_15_phase1_W_right.2" depart="66.00" departLane="W_in_1" departPos="84.66" departSpeed="1.89" departDelay="0.32" arrival="121.00" arrivalLane="S_out_0" arrivalPos="189.60" arrivalSpeed="12.17" duration="55.00" routeLength="303.57" waitingTime="21.00" waitingCount="1" stopTime="0.00" timeLoss="29.32" rerouteNo="0" devices="vehroute_flow_15_phase1_W_right.2 tripinfo_flow_15_phase1_W_right.2" vType="moto" speedFactor="0.89" vaporized=""/>
    <tripinfo id="flow_16_phase1_W_uturn.1" depart="67.00" departLane="W_in_1" departPos="36.12" departSpeed="12.29" departDelay="0.80" arrival="122.00" arrivalLane="W_out_1" arrivalPos="189.60" arrivalSpeed="14.30" duration="55.00" routeLength="347.75" waitingTime="18.00" waitingCount="1" stopTime="0.00" timeLoss="29.87" rerouteNo="0" devices="vehroute_flow_16_phase1_W_uturn.1 tripinfo_flow_16_phase1_W_uturn.1" vType="moto" speedFactor="1.04" vaporized=""/>
    <tripinfo id="flow_15_phase1_W_right.3" depart="99.00" departLane="W_in_1" departPos="53.99" departSpeed="5.49" departDelay="0.49" arrival="124.00" arrivalLane="S_out_0" arrivalPos="189.60" arrivalSpeed="15.90" duration="25.00" routeLength="334.24" waitingTime="0.00" waitingCount="0" stopTime="0.00" timeLoss="3.52" rerouteNo="0" devices="vehroute_flow_15_phase1_W_right.3 tripinfo_flow_15_phase1_W_right.3" vType="moto" speedFactor="1.17" vaporized=""/>
    <tripinfo id="flow_1_phase1_N_straight.1" depart="14.00" departLane="E_in_1" departPos="31.93" departSpeed="7.04" departDelay="0.48" arrival="125.00" arrivalLane="E_out_1" arrivalPos="189.60" arrivalSpeed="11.72" duration="111.00" routeLength="351.94" waitingTime="51.00" waitingCount="2" stopTime="0.00" timeLoss="80.37" rerouteNo="0" devices="vehroute_flow_1_phase1_N_straight.1 tripinfo_flow_1_phase1_N_straight.1" vType="moto" speedFactor="0.87" vaporized=""/>
    <tripinfo id="flow_13_phase1_W_straight.2" depart="27.00" departLane="E_in_1" departPos="107.53" departSpeed="1.15" departDelay="0.23" arrival="129.00" arrivalLane="S_out_1" arrivalPos="189.60" arrivalSpeed="12.78" duration="102.00" routeLength="291.02" waitingTime="49.00" waitingCount="2" stopTime="0.00" timeLoss="79.06" rerouteNo="0" devices="vehroute_flow_13_phase1_W_straight.2 tripinfo_flow_13_phase1_W_straight.2" vType="bus" speedFactor="0.97" vaporized=""/>
    <tripinfo id="flow_14_phase1_W_left.1" depart="35.00" departLane="E_in_1" departPos="65.01" departSpeed="3.77" departDelay="0.53" arrival="130.00" arrivalLane="W_out_0" arrivalPos="189.60" arrivalSpeed="12.20" duration="95.00" routeLength="334.99" waitingTime="35.00" waitingCount="2" stopTime="0.00" timeLoss="68.02" rerouteNo="0" devices="vehroute_flow_14_phase1_W_left.1 tripinfo_flow_14_phase1_W_left.1" vType="container" speedFactor="0.91" vaporized=""/>
    <tripinfo id="flow_9_phase1_E_straight.5" depart="65.00" departLane="E_in_0" departPos="64.25" departSpeed="6.51" departDelay="0.62" arrival="131.00" arrivalLane="W_out_1" arrivalPos="189.60" arrivalSpeed="12.76" duration="66.00" routeLength="335.75" waitingTime="28.00" waitingCount="1" stopTime="0.00" timeLoss="41.70" rerouteNo="0" devices="vehroute_flow_9_phase1_E_straight.5 tripinfo_flow_9_phase1_E_straight.5" vType="moto" speedFactor="1.00" vaporized=""/>
    <tripinfo id="flow_1_phase1_N_straight.2" depart="28.00" departLane="E_in_0" departPos="8.88" departSpeed="2.33" departDelay="0.97" arrival="133.00" arrivalLane="E_out_1" arrivalPos="189.60" arrivalSpeed="12.57" duration="105.00" routeLength="374.99" waitingTime="44.00" waitingCount="2" stopTime="0.00" timeLoss="73.82" rerouteNo="0" devices="vehroute_flow_1_phase1_N_straight.2 tripinfo_flow_1_phase1_N_straight.2" vType="moto" speedFactor="0.93" vaporized=""/>
    <tripinfo id="flow_9_phase1_E_straight.3" depart="39.00" departLane="E_in_1" departPos="23.57" departSpeed="1.20" departDelay="0.37" arrival="133.00" arrivalLane="W_out_0" arrivalPos="189.60" arrivalSpeed="11.78" duration="94.00" routeLength="376.43" waitingTime="30.00" waitingCount="1" stopTime="0.00" timeLoss="61.63" rerouteNo="0" devices="vehroute_flow_9_phase1_E_straight.3 tripinfo_flow_9_phase1_E_straight.3" vType="bus" speedFactor="0.85" vaporized=""/>
    <tripinfo id="flow_1_phase1_N_straight.3" depart="41.00" departLane="E_in_1" departPos="125.76" departSpeed="0.68" departDelay="0.45" arrival="134.00" arrivalLane="E_out_1" arrivalPos="189.60" arrivalSpeed="13.65" duration="93.00" routeLength="258.11" waitingTime="41.00" waitingCount="2" stopTime="0.00" timeLoss="76.03" rerouteNo="0" devices="vehroute_flow_1_phase1_N_straight.3 tripinfo_flow_1_phase1_N_straight.3" vType="moto" speedFactor="1.20" vaporized=""/>
    <tripinfo id="flow_9_phase1_E_straight.4" depart="52.00" departLane="E_in_1" departPos="19.51" departSpeed="9.01" departDelay="0.49" arrival="135.00" arrivalLane="W_out_0" arrivalPos="189.60" arrivalSpeed="12.85" duration="83.00" routeLength="380.49" waitingTime="23.00" waitingCount="1" stopTime="0.00" timeLoss="54.01" rerouteNo="0" devices="vehroute_flow_9_phase1_E_straight.4 tripinfo_flow_9_phase1_E_straight.4" vType="bus" speedFactor="0.95" vaporized=""/>
    <tripinfo id="flow_3_phase1_N_right.2" depart="69.00" departLane="E_in_1" departPos="16.04" departSpeed="8.73" departDelay="0.63" arrival="137.00" arrivalLane="W_out_0" arrivalPos="189.60" arrivalSpeed="14.87" duration="68.00" routeLength="383.96" waitingTime="19.00" waitingCount="1" stopTime="0.00" timeLoss="42.58" rerouteNo="0" devices="vehroute_flow_3_phase1_N_right.2 tripinfo_flow_3_phase1_N_right.2" vType="moto" speedFactor="1.10" vaporized=""/>
    <tripinfo id="flow_9_phase1_E_straight.6" depart="78.00" departLane="E_in_0" departPos="81.58" departSpeed="1.21" departDelay="0.74" arrival="139.00" arrivalLane="W_out_0" arrivalPos="189.60" arrivalSpeed="13.72" duration="61.00" routeLength="318.42" waitingTime="17.00" waitingCount="1" stopTime="0.00" timeLoss="37.65" rerouteNo="0" devices="vehroute_flow_9_phase1_E_straight.6 tripinfo_flow_9_phase1_E_straight.6" vType="moto" speedFactor="1.02" vaporized=""/>
    <tripinfo id="flow_14_phase1_W_left.2" depart="69.00" departLane="E_in_1" departPos="1.39" departSpeed="0.43" departDelay="0.06" arrival="141.00" arrivalLane="W_out_0" arrivalPos="189.60" arrivalSpeed="11.50" duration="72.00" routeLength="398.61" waitingTime="22.00" waitingCount="1" stopTime="0.00" timeLoss="39.89" rerouteNo="0" devices="vehroute_flow_14_phase1_W_left.2 tripinfo_flow_14_phase1_W_left.2" vType="car" speedFactor="0.90" vaporized=""/>
    <tripinfo id="flow_9_phase1_E_straight.7" depart="91.00" departLane="E_in_0" departPos="42.08" departSpeed="13.21" departDelay="0.86" arrival="143.00" arrivalLane="W_out_0" arrivalPos="189.60" arrivalSpeed="13.16" duration="52.00" routeLength="357.92" waitingTime="15.00" waitingCount="1" stopTime="0.00" timeLoss="25.75" rerouteNo="0" devices="vehroute_flow_9_phase1_E_straight.7 tripinfo_flow_9_phase1_E_straight.7" vType="moto" speedFactor="1.01" vaporized=""/>
    <tripinfo id="flow_10_phase1_E_left.1" depart="34.00" departLane="E_in_0" departPos="19.85" departSpeed="3.23" departDelay="0.50" arrival="144.00" arrivalLane="S_out_0" arrivalPos="189.60" arrivalSpeed="10.58" duration="110.00" routeLength="378.70" waitingTime="39.00" waitingCount="1" stopTime="0.00" timeLoss="73.33" rerouteNo="0" devices="vehroute_flow_10_phase1_E_left.1 tripinfo_flow_10_phase1_E_left.1" vType="truck" speedFactor="0.77" vaporized=""/>
    <tripinfo id="flow_3_phase1_N_right.3" depart="103.00" departLane="E_in_1" departPos="72.99" departSpeed="7.85" departDelay="0.45" arrival="144.00" arrivalLane="W_out_0" arrivalPos="189.60" arrivalSpeed="12.71" duration="41.00" routeLength="327.01" waitingTime="4.00" waitingCount="2" stopTime="0.00" timeLoss="16.18" rerouteNo="0" devices="vehroute_flow_3_phase1_N_right.3 tripinfo_flow_3_phase1_N_right.3" vType="moto" speedFactor="0.96" vaporized=""/>
    <tripinfo id="flow_13_phase1_W_straight.3" depart="41.00" departLane="E_in_0" departPos="52.57" departSpeed="8.58" departDelay="0.85" arrival="146.00" arrivalLane="S_out_1" arrivalPos="189.60" arrivalSpeed="13.50" duration="105.00" routeLength="345.98" waitingTime="39.00" waitingCount="3" stopTime="0.00" timeLoss="79.84" rerouteNo="0" devices="vehroute_flow_13_phase1_W_straight.3 tripinfo_flow_13_phase1_W_straight.3" vType="car" speedFactor="1.05" vaporized=""/>
    <tripinfo id="flow_1_phase1_N_straight.4" depart="55.00" departLane="E_in_0" departPos="91.52" departSpeed="10.02" departDelay="0.94" arrival="146.00" arrivalLane="E_out_1" arrivalPos="189.60" arrivalSpeed="12.41" duration="91.00" routeLength="292.35" waitingTime="38.00" waitingCount="2" stopTime="0.00" timeLoss="67.21" rerouteNo="0" devices="vehroute_flow_1_phase1_N_straight.4 tripinfo_flow_1_phase1_N_straight.4" vType="truck" speedFactor="0.92" vaporized=""/>
    <tripinfo id="flow_9_phase1_E_straight.8" depart="104.00" departLane="E_in_1" departPos="55.64" departSpeed="11.58" departDelay="0.98" arrival="146.00" arrivalLane="W_out_0" arrivalPos="189.60" arrivalSpeed="11.84" duration="42.00" routeLength="344.36" waitingTime="3.00" waitingCount="2" stopTime="0.00" timeLoss="14.92" rerouteNo="0" devices="vehroute_flow_9_phase1_E_straight.8 tripinfo_flow_9_phase1_E_straight.8" vType="moto" speedFactor="0.94" vaporized=""/>
    <tripinfo id="flow_14_phase1_W_left.3" depart="104.00" departLane="E_in_1" departPos="45.79" departSpeed="3.26" departDelay="0.59" arrival="147.00" arrivalLane="W_out_0" arrivalPos="189.60" arrivalSpeed="14.09" duration="43.00" routeLength="354.21" waitingTime="4.00" waitingCount="1" stopTime="0.00" timeLoss="19.12" rerouteNo="0" devices="vehroute_flow_14_phase1_W_left.3 tripinfo_flow_14_phase1_W_left.3" vType="moto" speedFactor="1.09" vaporized=""/>
    <tripinfo id="flow_4_phase1_N_uturn.1" depart="67.00" departLane="W_in_1" departPos="84.30" departSpeed="0.74" departDelay="0.96" arrival="151.00" arrivalLane="N_out_1" arrivalPos="189.60" arrivalSpeed="12.51" duration="84.00" routeLength="314.25" waitingTime="46.00" waitingCount="2" stopTime="0.00" timeLoss="58.49" rerouteNo="0" devices="vehroute_flow_4_phase1_N_uturn.1 tripinfo_flow_4_phase1_N_uturn.1" vType="moto" speedFactor="0.94" vaporized=""/>
    <tripinfo id="flow_6_phase1_S_left.3" depart="101.00" departLane="S_in_1" departPos="103.27" departSpeed="12.12" departDelay="0.64" arrival="151.00" arrivalLane="W_out_1" arrivalPos="189.60" arrivalSpeed="15.02" duration="50.00" routeLength="295.28" waitingTime="22.00" waitingCount="1" stopTime="0.00" timeLoss="29.33" rerouteNo="0" devices="vehroute_flow_6_phase1_S_left.3 tripinfo_flow_6_phase1_S_left.3" vType="car" speedFactor="1.10" vaporized=""/>
    <tripinfo id="flow_5_phase1_S_straight.8" depart="106.00" departLane="S_in_0" departPos="9.20" departSpeed="14.14" departDelay="0.16" arrival="152.00" arrivalLane="N_out_1" arrivalPos="189.60" arrivalSpeed="14.60" duration="46.00" routeLength="390.80" waitingTime="13.00" waitingCount="1" stopTime="0.00" timeLoss="20.88" rerouteNo="0" devices="vehroute_flow_5_phase1_S_straight.8 tripinfo_flow_5_phase1_S_straight.8" vType="emergency" speedFactor="1.14" vaporized=""/>
    <tripinfo id="flow_5_phase1_S_straight.9" depart="120.00" departLane="S_in_0" departPos="123.23" departSpeed="13.49" departDelay="0.93" arrival="154.00" arrivalLane="N_out_1" arrivalPos="189.60" arrivalSpeed="14.90" duration="34.00" routeLength="276.77" waitingTime="9.00" waitingCount="1" stopTime="0.00" timeLoss="16.02" rerouteNo="0" devices="vehroute_flow_5_phase1_S_straight.9 tripinfo_flow_5_phase1_S_straight.9" vType="moto" speedFactor="1.30" vaporized=""/>
    <tripinfo id="flow_7_phase1_S_right.3" depart="98.00" departLane="S_in_0" departPos="2.52" departSpeed="5.43" departDelay="0.52" arrival="155.00" arrivalLane="E_out_0" arrivalPos="189.60" arrivalSpeed="14.31" duration="57.00" routeLength="385.71" waitingTime="18.00" waitingCount="1" stopTime="0.00" timeLoss="29.66" rerouteNo="0" devices="vehroute_flow_7_phase1_S_right.3 tripinfo_flow_7_phase1_S_right.3" vType="moto" speedFactor="1.07" vaporized=""/>