<?xml version="1.0" encoding="UTF-8"?>

<!-- generated on 2025-12-08 21:46:25 by Eclipse SUMO sumo Version 1.18.0
<configuration xmlns:xsi="http://www.w3.org/2001/XMLSchema-instance" xsi:noNamespaceSchemaLocation="http://sumo.dlr.de/xsd/sumoConfiguration.xsd">

    <input>
        <net-file value="nets/60p2k/net.net.xml"/>
        <route-files value="nets/60p2k/route_temp_281_124147880884016_33742306.rou.xml"/>
    </input>

    <output>
        <summary-output value="result_ddqn_1.9_0.4/summary_ep_17.xml"/>
        <tripinfo-output value="result_ddqn_1.9_0.4/tripinfo_ep_17.xml"/>
        <vehroute-output value="result_ddqn_1.9_0.4/vehroute_ep_17.xml"/>
    </output>

    <time>
        <begin value="0"/>
    </time>

    <report>
        <verbose value="true"/>
        <no-warnings value="true"/>
        <no-step-log value="true"/>
    </report>

    <traci_server>
        <remote-port value="41807"/>
    </traci_server>

    <gui_only>
        <gui-settings-file value="nets/60p2k/gui-settings.xml"/>
        <quit-on-end value="true"/>
    </gui_only>

</configuration>
-->

<tripinfos xmlns:xsi="http://www.w3.org/2001/XMLSchema-instance" xsi:noNamespaceSchemaLocation="http://sumo.dlr.de/xsd/tripinfo_file.xsd">
    <tripinfo id="flow_5_phase1_S_straight.0" depart="0.00" departLane="S_in_1" departPos="107.37" departSpeed="7.21" departDelay="0.00" arrival="21.00" arrivalLane="N_out_1" arrivalPos="189.60" arrivalSpeed="15.92" duration="21.00" routeLength="292.63" waitingTime="0.00" waitingCount="0" stopTime="0.00" timeLoss="2.08" rerouteNo="0" devices="vehroute_flow_5_phase1_S_straight.0 tripinfo_flow_5_phase1_S_straight.0" vType="moto" speedFactor="1.15" vaporized=""/>
    <tripinfo id="flow_3_phase1_N_right.0" depart="0.00" departLane="S_in_0" departPos="103.38" departSpeed="3.75" departDelay="0.00" arrival="23.00" arrivalLane="N_out_0" arrivalPos="189.60" arrivalSpeed="14.58" duration="23.00" routeLength="296.62" waitingTime="0.00" waitingCount="0" stopTime="0.00" timeLoss="2.52" rerouteNo="0" devices="vehroute_flow_3_phase1_N_right.0 tripinfo_flow_3_phase1_N_right.0" vType="car" speedFactor="1.09" vaporized=""/>
    <tripinfo id="flow_8_phase1_S_uturn.0" depart="0.00" departLane="N_in_0" departPos="120.11" departSpeed="4.48" departDelay="0.00" arrival="24.00" arrivalLane="W_out_0" arrivalPos="189.60" arrivalSpeed="14.49" duration="24.00" routeLength="268.12" waitingTime="0.00" waitingCount="0" stopTime="0.00" timeLoss="4.34" rerouteNo="0" devices="vehroute_flow_8_phase1_S_uturn.0 tripinfo_flow_8_phase1_S_uturn.0" vType="moto" speedFactor="1.05" vaporized=""/>
    <tripinfo id="flow_6_phase1_S_left.0" depart="0.00" departLane="S_in_1" departPos="166.01" departSpeed="0.74" departDelay="0.00" arrival="25.00" arrivalLane="W_out_1" arrivalPos="189.60" arrivalSpeed="11.28" duration="25.00" routeLength="232.54" waitingTime="0.00" waitingCount="0" stopTime="0.00" timeLoss="4.31" rerouteNo="0" devices="vehroute_flow_6_phase1_S_left.0 tripinfo_flow_6_phase1_S_left.0" vType="moto" speedFactor="0.88" vaporized=""/>
    <tripinfo id="flow_4_phase1_N_uturn.0" depart="0.00" departLane="N_in_1" departPos="127.60" departSpeed="0.08" departDelay="0.00" arrival="28.00" arrivalLane="N_out_1" arrivalPos="189.60" arrivalSpeed="12.83" duration="28.00" routeLength="256.27" waitingTime="0.00" waitingCount="0" stopTime="0.00" timeLoss="7.15" rerouteNo="0" devices="vehroute_flow_4_phase1_N_uturn.0 tripinfo_flow_4_phase1_N_uturn.0" vType="car" speedFactor="0.92" vaporized=""/>
    <tripinfo id="flow_2_phase1_N_left.0" depart="0.00" departLane="N_in_1" departPos="8.27" departSpeed="8.33" departDelay="0.00" arrival="31.00" arrivalLane="E_out_1" arrivalPos="189.60" arrivalSpeed="13.89" duration="31.00" routeLength="390.28" waitingTime="0.00" waitingCount="0" stopTime="0.00" timeLoss="2.69" rerouteNo="0" devices="vehroute_flow_2_phase1_N_left.0 tripinfo_flow_2_phase1_N_left.0" vType="moto" speedFactor="1.02" vaporized=""/>
    <tripinfo id="flow_9_phase1_E_straight.1" depart="13.00" departLane="E_in_0" departPos="131.13" departSpeed="9.54" departDelay="0.12" arrival="32.00" arrivalLane="W_out_1" arrivalPos="189.60" arrivalSpeed="15.78" duration="19.00" routeLength="268.87" waitingTime="0.00" waitingCount="0" stopTime="0.00" timeLoss="1.74" rerouteNo="0" devices="vehroute_flow_9_phase1_E_straight.1 tripinfo_flow_9_phase1_E_straight.1" vType="moto" speedFactor="1.16" vaporized=""/>
    <tripinfo id="flow_15_phase1_W_right.0" depart="0.00" departLane="W_in_1" departPos="45.77" departSpeed="6.73" departDelay="0.00" arrival="39.00" arrivalLane="S_out_0" arrivalPos="189.60" arrivalSpeed="10.73" duration="39.00" routeLength="342.46" waitingTime="1.00" waitingCount="1" stopTime="0.00" timeLoss="8.58" rerouteNo="0" devices="vehroute_flow_15_phase1_W_right.0 tripinfo_flow_15_phase1_W_right.0" vType="moto" speedFactor="0.85" vaporized=""/>
    <tripinfo id="flow_16_phase1_W_uturn.0" depart="0.00" departLane="W_in_1" departPos="126.68" departSpeed="1.28" departDelay="0.00" arrival="39.00" arrivalLane="W_out_1" arrivalPos="189.60" arrivalSpeed="13.77" duration="39.00" routeLength="257.19" waitingTime="9.00" waitingCount="1" stopTime="0.00" timeLoss="19.27" rerouteNo="0" devices="vehroute_flow_16_phase1_W_uturn.0 tripinfo_flow_16_phase1_W_uturn.0" vType="moto" speedFactor="1.04" vaporized=""/>
    <tripinfo id="flow_9_phase1_E_straight.0" depart="0.00" departLane="E_in_0" departPos="168.29" departSpeed="9.83" departDelay="0.00" arrival="41.00" arrivalLane="W_out_0" arrivalPos="189.60" arrivalSpeed="11.82" duration="41.00" routeLength="231.71" waitingTime="11.00" waitingCount="1" stopTime="0.00" timeLoss="22.24" rerouteNo="0" devices="vehroute_flow_9_phase1_E_straight.0 tripinfo_flow_9_phase1_E_straight.0" vType="truck" speedFactor="0.90" vaporized=""/>
    <tripinfo id="flow_11_phase1_E_right.0" depart="0.00" departLane="E_in_1" departPos="144.95" departSpeed="4.02" departDelay="0.00" arrival="42.00" arrivalLane="N_out_0" arrivalPos="189.60" arrivalSpeed="13.24" duration="42.00" routeLength="243.28" waitingTime="10.00" waitingCount="1" stopTime="0.00" timeLoss="22.95" rerouteNo="0" devices="vehroute_flow_11_phase1_E_right.0 tripinfo_flow_11_phase1_E_right.0" vType="bus" speedFactor="0.96" vaporized=""/>
    <tripinfo id="flow_12_phase1_E_uturn.0" depart="0.00" departLane="W_in_0" departPos="129.89" departSpeed="13.76" departDelay="0.00" arrival="42.00" arrivalLane="N_out_1" arrivalPos="189.60" arrivalSpeed="13.78" duration="42.00" routeLength="268.66" waitingTime="13.00" waitingCount="2" stopTime="0.00" timeLoss="22.67" rerouteNo="0" devices="vehroute_flow_12_phase1_E_uturn.0 tripinfo_flow_12_phase1_E_uturn.0" vType="moto" speedFactor="1.03" vaporized=""/>
    <tripinfo id="flow_13_phase1_W_straight.0" depart="0.00" departLane="W_in_0" departPos="77.99" departSpeed="1.48" departDelay="0.00" arrival="44.00" arrivalLane="E_out_0" arrivalPos="189.60" arrivalSpeed="11.12" duration="44.00" routeLength="322.01" waitingTime="0.00" waitingCount="0" stopTime="0.00" timeLoss="15.11" rerouteNo="0" devices="vehroute_flow_13_phase1_W_straight.0 tripinfo_flow_13_phase1_W_straight.0" vType="container" speedFactor="0.82" vaporized=""/>
    <tripinfo id="flow_14_phase1_W_left.0" depart="0.00" departLane="E_in_1" departPos="42.31" departSpeed="3.71" departDelay="0.00" arrival="45.00" arrivalLane="N_out_0" arrivalPos="189.60" arrivalSpeed="13.83" duration="45.00" routeLength="345.92" waitingTime="7.00" waitingCount="1" stopTime="0.00" timeLoss="19.07" rerouteNo="0" devices="vehroute_flow_14_phase1_W_left.0 tripinfo_flow_14_phase1_W_left.0" vType="moto" speedFactor="1.01" vaporized=""/>
    <tripinfo id="flow_10_phase1_E_left.0" depart="0.00" departLane="W_in_0" departPos="44.88" departSpeed="7.69" departDelay="0.00" arrival="46.00" arrivalLane="W_out_1" arrivalPos="189.60" arrivalSpeed="13.74" duration="46.00" routeLength="338.99" waitingTime="1.00" waitingCount="1" stopTime="0.00" timeLoss="20.84" rerouteNo="0" devices="vehroute_flow_10_phase1_E_left.0 tripinfo_flow_10_phase1_E_left.0" vType="truck" speedFactor="1.02" vaporized=""/>
    <tripinfo id="flow_5_phase1_S_straight.1" depart="14.00" departLane="S_in_1" departPos="31.93" departSpeed="9.28" departDelay="0.77" arrival="47.00" arrivalLane="N_out_1" arrivalPos="189.60" arrivalSpeed="15.01" duration="33.00" routeLength="368.07" waitingTime="2.00" waitingCount="1" stopTime="0.00" timeLoss="9.92" rerouteNo="0" devices="vehroute_flow_5_phase1_S_straight.1 tripinfo_flow_5_phase1_S_straight.1" vType="moto" speedFactor="1.19" vaporized=""/>
    <tripinfo id="flow_1_phase1_N_straight.1" depart="14.00" departLane="N_in_1" departPos="58.36" departSpeed="11.64" departDelay="0.48" arrival="51.00" arrivalLane="S_out_0" arrivalPos="189.60" arrivalSpeed="11.90" duration="37.00" routeLength="341.64" waitingTime="2.00" waitingCount="1" stopTime="0.00" timeLoss="8.36" rerouteNo="0" devices="vehroute_flow_1_phase1_N_straight.1 tripinfo_flow_1_phase1_N_straight.1" vType="moto" speedFactor="0.87" vaporized=""/>
    <tripinfo id="flow_3_phase1_N_right.1" depart="35.00" departLane="S_in_1" departPos="175.36" departSpeed="7.65" departDelay="0.82" arrival="55.00" arrivalLane="N_out_1" arrivalPos="189.60" arrivalSpeed="11.96" duration="20.00" routeLength="224.64" waitingTime="0.00" waitingCount="0" stopTime="0.00" timeLoss="1.02" rerouteNo="0" devices="vehroute_flow_3_phase1_N_right.1 tripinfo_flow_3_phase1_N_right.1" vType="moto" speedFactor="0.88" vaporized=""/>
    <tripinfo id="flow_1_phase1_N_straight.0" depart="0.00" departLane="N_in_0" departPos="8.62" departSpeed="8.51" departDelay="0.00" arrival="56.00" arrivalLane="S_out_0" arrivalPos="189.60" arrivalSpeed="11.83" duration="56.00" routeLength="391.38" waitingTime="11.00" waitingCount="1" stopTime="0.00" timeLoss="22.41" rerouteNo="0" devices="vehroute_flow_1_phase1_N_straight.0 tripinfo_flow_1_phase1_N_straight.0" vType="bus" speedFactor="0.86" vaporized=""/>
    <tripinfo id="flow_1_phase1_N_straight.2" depart="28.00" departLane="N_in_1" departPos="39.28" departSpeed="7.32" departDelay="0.97" arrival="58.00" arrivalLane="S_out_1" arrivalPos="189.60" arrivalSpeed="11.91" duration="30.00" routeLength="360.72" waitingTime="0.00" waitingCount="0" stopTime="0.00" timeLoss="1.83" rerouteNo="0" devices="vehroute_flow_1_phase1_N_straight.2 tripinfo_flow_1_phase1_N_straight.2" vType="moto" speedFactor="0.93" vaporized=""/>
    <tripinfo id="flow_13_phase1_W_straight.1" depart="14.00" departLane="W_in_1" departPos="28.79" departSpeed="2.86" departDelay="0.62" arrival="61.00" arrivalLane="E_out_0" arrivalPos="189.60" arrivalSpeed="14.31" duration="47.00" routeLength="371.21" waitingTime="10.00" waitingCount="1" stopTime="0.00" timeLoss="23.10" rerouteNo="0" devices="vehroute_flow_13_phase1_W_straight.1 tripinfo_flow_13_phase1_W_straight.1" vType="car" speedFactor="1.12" vaporized=""/>
    <tripinfo id="flow_9_phase1_E_straight.2" depart="26.00" departLane="E_in_1" departPos="103.67" departSpeed="3.85" departDelay="0.25" arrival="63.00" arrivalLane="W_out_0" arrivalPos="189.60" arrivalSpeed="13.10" duration="37.00" routeLength="296.33" waitingTime="7.00" waitingCount="1" stopTime="0.00" timeLoss="14.73" rerouteNo="0" devices="vehroute_flow_9_phase1_E_straight.2 tripinfo_flow_9_phase1_E_straight.2" vType="moto" speedFactor="0.99" vaporized=""/>
    <tripinfo id="flow_11_phase1_E_right.1" depart="33.00" departLane="E_in_0" departPos="80.24" departSpeed="9.78" departDelay="0.51" arrival="63.00" arrivalLane="N_out_0" arrivalPos="189.60" arrivalSpeed="14.00" duration="30.00" routeLength="307.99" waitingTime="1.00" waitingCount="1" stopTime="0.00" timeLoss="7.39" rerouteNo="0" devices="vehroute_flow_11_phase1_E_right.1 tripinfo_flow_11_phase1_E_right.1" vType="moto" speedFactor="1.04" vaporized=""/>
    <tripinfo id="flow_15_phase1_W_right.1" depart="33.00" departLane="W_in_1" departPos="156.52" departSpeed="5.84" departDelay="0.16" arrival="63.00" arrivalLane="S_out_0" arrivalPos="189.60" arrivalSpeed="14.58" duration="30.00" routeLength="231.71" waitingTime="6.00" waitingCount="1" stopTime="0.00" timeLoss="13.26" rerouteNo="0" devices="vehroute_flow_15_phase1_W_right.1 tripinfo_flow_15_phase1_W_right.1" vType="moto" speedFactor="1.08" vaporized=""/>
    <tripinfo id="flow_13_phase1_W_straight.2" depart="27.00" departLane="W_in_1" departPos="64.28" departSpeed="4.21" departDelay="0.23" arrival="69.00" arrivalLane="E_out_0" arrivalPos="189.60" arrivalSpeed="12.84" duration="42.00" routeLength="335.72" waitingTime="2.00" waitingCount="1" stopTime="0.00" timeLoss="16.18" rerouteNo="0" devices="vehroute_flow_13_phase1_W_straight.2 tripinfo_flow_13_phase1_W_straight.2" vType="bus" speedFactor="0.97" vaporized=""/>
    <tripinfo id="flow_14_phase1_W_left.1" depart="35.00" departLane="E_in_0" departPos="86.42" departSpeed="5.40" departDelay="0.53" arrival="69.00" arrivalLane="N_out_0" arrivalPos="189.60" arrivalSpeed="12.57" duration="34.00" routeLength="301.81" waitingTime="0.00" waitingCount="0" stopTime="0.00" timeLoss="8.99" rerouteNo="0" devices="vehroute_flow_14_phase1_W_left.1 tripinfo_flow_14_phase1_W_left.1" vType="container" speedFactor="0.91" vaporized=""/>
    <tripinfo id="flow_9_phase1_E_straight.3" depart="39.00" departLane="E_in_0" departPos="56.18" departSpeed="6.79" departDelay="0.37" arrival="71.00" arrivalLane="W_out_1" arrivalPos="189.60" arrivalSpeed="11.29" duration="32.00" routeLength="343.82" waitingTime="0.00" waitingCount="0" stopTime="0.00" timeLoss="2.47" rerouteNo="0" devices="vehroute_flow_9_phase1_E_straight.3 tripinfo_flow_9_phase1_E_straight.3" vType="bus" speedFactor="0.85" vaporized=""/>
    <tripinfo id="flow_1_phase1_N_straight.3" depart="41.00" departLane="N_in_0" departPos="125.48" departSpeed="7.46" departDelay="0.45" arrival="74.00" arrivalLane="S_out_0" arrivalPos="189.60" arrivalSpeed="14.83" duration="33.00" routeLength="274.52" waitingTime="8.00" waitingCount="1" stopTime="0.00" timeLoss="15.45" rerouteNo="0" devices="vehroute_flow_1_phase1_N_straight.3 tripinfo_flow_1_phase1_N_straight.3" vType="moto" speedFactor="1.20" vaporized=""/>
    <tripinfo id="flow_5_phase1_S_straight.2" depart="27.00" departLane="S_in_0" departPos="33.93" departSpeed="0.90" departDelay="0.54" arrival="75.00" arrivalLane="N_out_0" arrivalPos="189.60" arrivalSpeed="13.29" duration="48.00" routeLength="366.07" waitingTime="13.00" waitingCount="1" stopTime="0.00" timeLoss="20.60" rerouteNo="0" devices="vehroute_flow_5_phase1_S_straight.2 tripinfo_flow_5_phase1_S_straight.2" vType="moto" speedFactor="0.96" vaporized=""/>
    <tripinfo id="flow_5_phase1_S_straight.3" depart="40.00" departLane="S_in_0" departPos="132.62" departSpeed="5.13" departDelay="0.31" arrival="77.00" arrivalLane="N_out_0" arrivalPos="189.60" arrivalSpeed="14.30" duration="37.00" routeLength="267.38" waitingTime="11.00" waitingCount="1" stopTime="0.00" timeLoss="18.36" rerouteNo="0" devices="vehroute_flow_5_phase1_S_straight.3 tripinfo_flow_5_phase1_S_straight.3" vType="moto" speedFactor="1.08" vaporized=""/>
    <tripinfo id="flow_2_phase1_N_left.1" depart="33.00" departLane="N_in_0" departPos="15.17" departSpeed="0.73" departDelay="0.32" arrival="79.00" arrivalLane="E_out_1" arrivalPos="189.60" arrivalSpeed="15.09" duration="46.00" routeLength="383.38" waitingTime="7.00" waitingCount="2" stopTime="0.00" timeLoss="20.56" rerouteNo="0" devices="vehroute_flow_2_phase1_N_left.1 tripinfo_flow_2_phase1_N_left.1" vType="moto" speedFactor="1.12" vaporized=""/>
    <tripinfo id="flow_7_phase1_S_right.0" depart="0.00" departLane="W_in_0" departPos="8.76" departSpeed="8.07" departDelay="0.00" arrival="84.00" arrivalLane="W_out_0" arrivalPos="189.60" arrivalSpeed="11.17" duration="84.00" routeLength="375.11" waitingTime="23.00" waitingCount="2" stopTime="0.00" timeLoss="50.81" rerouteNo="0" devices="vehroute_flow_7_phase1_S_right.0 tripinfo_flow_7_phase1_S_right.0" vType="container" speedFactor="0.85" vaporized=""/>
    <tripinfo id="flow_6_phase1_S_left.1" depart="34.00" departLane="S_in_0" departPos="69.24" departSpeed="6.06" departDelay="0.55" arrival="84.00" arrivalLane="W_out_1" arrivalPos="189.60" arrivalSpeed="13.58" duration="50.00" routeLength="329.31" waitingTime="13.00" waitingCount="2" stopTime="0.00" timeLoss="26.27" rerouteNo="0" devices="vehroute_flow_6_phase1_S_left.1 tripinfo_flow_6_phase1_S_left.1" vType="moto" speedFactor="1.05" vaporized=""/>
    <tripinfo id="flow_1_phase1_N_straight.4" depart="55.00" departLane="N_in_1" departPos="171.48" departSpeed="1.96" departDelay="0.94" arrival="89.00" arrivalLane="S_out_0" arrivalPos="189.60" arrivalSpeed="12.13" duration="34.00" routeLength="228.52" waitingTime="3.00" waitingCount="1" stopTime="0.00" timeLoss="15.40" rerouteNo="0" devices="vehroute_flow_1_phase1_N_straight.4 tripinfo_flow_1_phase1_N_straight.4" vType="truck" speedFactor="0.92" vaporized=""/>
    <tripinfo id="flow_11_phase1_E_right.2" depart="65.00" departLane="E_in_1" departPos="108.70" departSpeed="9.42" departDelay="0.02" arrival="91.00" arrivalLane="N_out_0" arrivalPos="189.60" arrivalSpeed="14.70" duration="26.00" routeLength="279.53" waitingTime="0.00" waitingCount="0" stopTime="0.00" timeLoss="6.83" rerouteNo="0" devices="vehroute_flow_11_phase1_E_right.2 tripinfo_flow_11_phase1_E_right.2" vType="moto" speedFactor="1.14" vaporized=""/>
    <tripinfo id="flow_9_phase1_E_straight.5" depart="65.00" departLane="E_in_0" departPos="71.94" departSpeed="3.84" departDelay="0.62" arrival="92.00" arrivalLane="W_out_1" arrivalPos="189.60" arrivalSpeed="12.63" duration="27.00" routeLength="328.06" waitingTime="0.00" waitingCount="0" stopTime="0.00" timeLoss="3.12" rerouteNo="0" devices="vehroute_flow_9_phase1_E_straight.5 tripinfo_flow_9_phase1_E_straight.5" vType="moto" speedFactor="1.00" vaporized=""/>
    <tripinfo id="flow_9_phase1_E_straight.4" depart="52.00" departLane="E_in_0" departPos="167.23" departSpeed="1.87" departDelay="0.49" arrival="93.00" arrivalLane="W_out_0" arrivalPos="189.60" arrivalSpeed="12.53" duration="41.00" routeLength="232.77" waitingTime="10.00" waitingCount="1" stopTime="0.00" timeLoss="22.54" rerouteNo="0" devices="vehroute_flow_9_phase1_E_straight.4 tripinfo_flow_9_phase1_E_straight.4" vType="bus" speedFactor="0.95" vaporized=""/>
    <tripinfo id="flow_13_phase1_W_straight.3" depart="41.00" departLane="W_in_1" departPos="23.57" departSpeed="4.10" departDelay="0.85" arrival="95.00" arrivalLane="E_out_1" arrivalPos="189.60" arrivalSpeed="13.56" duration="54.00" routeLength="376.43" waitingTime="10.00" waitingCount="1" stopTime="0.00" timeLoss="27.31" rerouteNo="0" devices="vehroute_flow_13_phase1_W_straight.3 tripinfo_flow_13_phase1_W_straight.3" vType="car" speedFactor="1.05" vaporized=""/>
    <tripinfo id="flow_13_phase1_W_straight.4" depart="54.00" departLane="W_in_0" departPos="185.47" departSpeed="3.56" departDelay="0.46" arrival="95.00" arrivalLane="E_out_0" arrivalPos="189.60" arrivalSpeed="11.80" duration="41.00" routeLength="214.53" waitingTime="12.00" waitingCount="1" stopTime="0.00" timeLoss="22.87" rerouteNo="0" devices="vehroute_flow_13_phase1_W_straight.4 tripinfo_flow_13_phase1_W_straight.4" vType="bus" speedFactor="0.87" vaporized=""/>
    <tripinfo id="flow_15_phase1_W_right.2" depart="66.00" departLane="W_in_1" departPos="89.17" departSpeed="7.52" departDelay="0.32" arrival="98.00" arrivalLane="S_out_0" arrivalPos="189.60" arrivalSpeed="12.29" duration="32.00" routeLength="299.06" waitingTime="0.00" waitingCount="0" stopTime="0.00" timeLoss="7.04" rerouteNo="0" devices="vehroute_flow_15_phase1_W_right.2 tripinfo_flow_15_phase1_W_right.2" vType="moto" speedFactor="0.89" vaporized=""/>
    <tripinfo id="flow_5_phase1_S_straight.5" depart="67.00" departLane="S_in_1" departPos="92.22" departSpeed="0.17" departDelay="0.85" arrival="101.00" arrivalLane="N_out_0" arrivalPos="189.60" arrivalSpeed="13.25" duration="34.00" routeLength="307.78" waitingTime="2.00" waitingCount="1" stopTime="0.00" timeLoss="12.08" rerouteNo="0" devices="vehroute_flow_5_phase1_S_straight.5 tripinfo_flow_5_phase1_S_straight.5" vType="moto" speedFactor="1.03" vaporized=""/>
    <tripinfo id="flow_3_phase1_N_right.2" depart="69.00" departLane="S_in_1" departPos="84.30" departSpeed="7.76" departDelay="0.63" arrival="102.00" arrivalLane="N_out_1" arrivalPos="189.60" arrivalSpeed="15.10" duration="33.00" routeLength="315.70" waitingTime="0.00" waitingCount="0" stopTime="0.00" timeLoss="12.32" rerouteNo="0" devices="vehroute_flow_3_phase1_N_right.2 tripinfo_flow_3_phase1_N_right.2" vType="moto" speedFactor="1.10" vaporized=""/>
    <tripinfo id="flow_7_phase1_S_right.1" depart="33.00" departLane="W_in_0" departPos="54.99" departSpeed="3.84" departDelay="0.51" arrival="106.00" arrivalLane="W_out_0" arrivalPos="189.60" arrivalSpeed="10.38" duration="73.00" routeLength="328.88" waitingTime="18.00" waitingCount="3" stopTime="0.00" timeLoss="40.91" rerouteNo="0" devices="vehroute_flow_7_phase1_S_right.1 tripinfo_flow_7_phase1_S_right.1" vType="container" speedFactor="0.78" vaporized=""/>
    <tripinfo id="flow_8_phase1_S_uturn.1" depart="66.00" departLane="N_in_0" departPos="104.14" departSpeed="9.65" departDelay="0.07" arrival="108.00" arrivalLane="W_out_0" arrivalPos="189.60" arrivalSpeed="11.74" duration="42.00" routeLength="284.09" waitingTime="5.00" waitingCount="1" stopTime="0.00" timeLoss="19.37" rerouteNo="0" devices="vehroute_flow_8_phase1_S_uturn.1 tripinfo_flow_8_phase1_S_uturn.1" vType="truck" speedFactor="0.94" vaporized=""/>
    <tripinfo id="flow_5_phase1_S_straight.6" depart="80.00" departLane="S_in_0" departPos="43.18" departSpeed="3.45" departDelay="0.62" arrival="108.00" arrivalLane="N_out_1" arrivalPos="189.60" arrivalSpeed="14.46" duration="28.00" routeLength="356.82" waitingTime="0.00" waitingCount="0" stopTime="0.00" timeLoss="4.14" rerouteNo="0" devices="vehroute_flow_5_phase1_S_straight.6 tripinfo_flow_5_phase1_S_straight.6" vType="moto" speedFactor="1.10" vaporized=""/>
    <tripinfo id="flow_1_phase1_N_straight.5" depart="68.00" departLane="N_in_1" departPos="84.66" departSpeed="1.92" departDelay="0.42" arrival="109.00" arrivalLane="S_out_0" arrivalPos="189.60" arrivalSpeed="12.07" duration="41.00" routeLength="315.34" waitingTime="2.00" waitingCount="1" stopTime="0.00" timeLoss="15.03" rerouteNo="0" devices="vehroute_flow_1_phase1_N_straight.5 tripinfo_flow_1_phase1_N_straight.5" vType="moto" speedFactor="0.90" vaporized=""/>
    <tripinfo id="flow_5_phase1_S_straight.4" depart="53.00" departLane="S_in_0" departPos="8.08" departSpeed="6.48" departDelay="0.08" arrival="110.00" arrivalLane="N_out_0" arrivalPos="189.60" arrivalSpeed="13.33" duration="57.00" routeLength="391.92" waitingTime="10.00" waitingCount="1" stopTime="0.00" timeLoss="27.56" rerouteNo="0" devices="vehroute_flow_5_phase1_S_straight.4 tripinfo_flow_5_phase1_S_straight.4" vType="container" speedFactor="0.97" vaporized=""/>
    <tripinfo id="flow_2_phase1_N_left.2" depart="66.00" departLane="N_in_0" departPos="121.56" departSpeed="13.08" departDelay="0.64" arrival="112.00" arrivalLane="E_out_1" arrivalPos="189.60" arrivalSpeed="15.01" duration="46.00" routeLength="276.99" waitingTime="19.00" waitingCount="2" stopTime="0.00" timeLoss="26.58" rerouteNo="0" devices="vehroute_flow_2_phase1_N_left.2 tripinfo_flow_2_phase1_N_left.2" vType="emergency" speedFactor="1.10" vaporized=""/>
    <tripinfo id="flow_13_phase1_W_straight.5" depart="67.00" departLane="W_in_1" departPos="148.65" departSpeed="7.27" departDelay="0.08" arrival="113.00" arrivalLane="E_out_0" arrivalPos="189.60" arrivalSpeed="15.21" duration="46.00" routeLength="251.35" waitingTime="12.00" waitingCount="1" stopTime="0.00" timeLoss="29.85" rerouteNo="0" devices="vehroute_flow_13_phase1_W_straight.5 tripinfo_flow_13_phase1_W_straight.5" vType="moto" speedFactor="1.14" vaporized=""/>
    <tripinfo id="flow_6_phase1_S_left.2" depart="67.00" departLane="S_in_1" departPos="21.68" departSpeed="5.11" departDelay="0.10" arrival="114.00" arrivalLane="W_out_1" arrivalPos="189.60" arrivalSpeed="12.19" duration="47.00" routeLength="376.87" waitingTime="1.00" waitingCount="1" stopTime="0.00" timeLoss="15.84" rerouteNo="0" devices="vehroute_flow_6_phase1_S_left.2 tripinfo_flow_6_phase1_S_left.2" vType="truck" speedFactor="0.89" vaporized=""/>
    <tripinfo id="flow_14_phase1_W_left.2" depart="69.00" departLane="E_in_1" departPos="29.88" departSpeed="10.00" departDelay="0.06" arrival="115.00" arrivalLane="N_out_0" arrivalPos="189.60" arrivalSpeed="11.93" duration="46.00" routeLength="358.35" waitingTime="9.00" waitingCount="1" stopTime="0.00" timeLoss="16.06" rerouteNo="0" devices="vehroute_flow_14_phase1_W_left.2 tripinfo_flow_14_phase1_W_left.2" vType="car" speedFactor="0.90" vaporized=""/>
    <tripinfo id="flow_9_phase1_E_straight.6" depart="78.00" departLane="E_in_0" departPos="21.74" departSpeed="1.84" departDelay="0.74" arrival="116.00" arrivalLane="W_out_1" arrivalPos="189.60" arrivalSpeed="13.66" duration="38.00" routeLength="378.26" waitingTime="0.00" waitingCount="0" stopTime="0.00" timeLoss="11.03" rerouteNo="0" devices="vehroute_flow_9_phase1_E_straight.6 tripinfo_flow_9_phase1_E_straight.6" vType="moto" speedFactor="1.02" vaporized=""/>
    <tripinfo id="flow_13_phase1_W_straight.6" depart="81.00" departLane="W_in_0" departPos="60.83" departSpeed="12.47" departDelay="0.70" arrival="116.00" arrivalLane="E_out_0" arrivalPos="189.60" arrivalSpeed="13.02" duration="35.00" routeLength="339.17" waitingTime="3.00" waitingCount="1" stopTime="0.00" timeLoss="9.89" rerouteNo="0" devices="vehroute_flow_13_phase1_W_straight.6 tripinfo_flow_13_phase1_W_straight.6" vType="car" speedFactor="0.98" vaporized=""/>
    <tripinfo id="flow_9_phase1_E_straight.7" depart="91.00" departLane="E_in_0" departPos="178.36" departSpeed="3.34" departDelay="0.86" arrival="118.00" arrivalLane="W_out_0" arrivalPos="189.60" arrivalSpeed="13.56" duration="27.00" routeLength="221.64" waitingTime="1.00" waitingCount="1" stopTime="0.00" timeLoss="10.29" rerouteNo="0" devices="vehroute_flow_9_phase1_E_straight.7 tripinfo_flow_9_phase1_E_straight.7" vType="moto" speedFactor="1.01" vaporized=""/>
    <tripinfo id="flow_10_phase1_E_left.1" depart="34.00" departLane="W_in_1" departPos="19.85" departSpeed="0.25" departDelay="0.50" arrival="128.00" arrivalLane="W_out_0" arrivalPos="189.60" arrivalSpeed="9.88" duration="94.00" routeLength="364.02" waitingTime="22.00" waitingCount="4" stopTime="0.00" timeLoss="58.10" rerouteNo="0" devices="vehroute_flow_10_phase1_E_left.1 tripinfo_flow_10_phase1_E_left.1" vType="truck" speedFactor="0.77" vaporized=""/>
    <tripinfo id="flow_1_phase1_N_straight.6" depart="82.00" departLane="N_in_1" departPos="88.32" departSpeed="11.59" departDelay="0.90" arrival="128.00" arrivalLane="S_out_0" arrivalPos="189.60" arrivalSpeed="13.33" duration="46.00" routeLength="311.68" waitingTime="14.00" waitingCount="1" stopTime="0.00" timeLoss="22.93" rerouteNo="0" devices="vehroute_flow_1_phase1_N_straight.6 tripinfo_flow_1_phase1_N_straight.6" vType="car" speedFactor="0.98" vaporized=""/>
    <tripinfo id="flow_3_phase1_N_right.3" depart="103.00" departLane="S_in_0" departPos="178.62" departSpeed="7.30" departDelay="0.45" arrival="128.00" arrivalLane="N_out_0" arrivalPos="189.60" arrivalSpeed="12.95" duration="25.00" routeLength="221.38" waitingTime="1.00" waitingCount="1" stopTime="0.00" timeLoss="8.07" rerouteNo="0" devices="vehroute_flow_3_phase1_N_right.3 tripinfo_flow_3_phase1_N_right.3" vType="moto" speedFactor="0.96" vaporized=""/>
    <tripinfo id="flow_5_phase1_S_straight.8" depart="106.00" departLane="S_in_0" departPos="144.29" departSpeed="4.78" departDelay="0.16" arrival="129.00" arrivalLane="N_out_0" arrivalPos="189.60" arrivalSpeed="15.42" duration="23.00" routeLength="255.71" waitingTime="0.00" waitingCount="0" stopTime="0.00" timeLoss="6.63" rerouteNo="0" devices="vehroute_flow_5_phase1_S_straight.8 tripinfo_flow_5_phase1_S_straight.8" vType="emergency" speedFactor="1.14" vaporized=""/>
    <tripinfo id="flow_1_phase1_N_straight.7" depart="95.00" departLane="N_in_1" departPos="142.12" departSpeed="0.51" departDelay="0.39" arrival="131.00" arrivalLane="S_out_0" arrivalPos="189.60" arrivalSpeed="14.50" duration="36.00" routeLength="257.88" waitingTime="8.00" waitingCount="2" stopTime="0.00" timeLoss="18.40" rerouteNo="0" devices="vehroute_flow_1_phase1_N_straight.7 tripinfo_flow_1_phase1_N_straight.7" vType="moto" speedFactor="1.06" vaporized=""/>
    <tripinfo id="flow_5_phase1_S_straight.7" depart="93.00" departLane="S_in_1" departPos="107.80" departSpeed="11.54" departDelay="0.39" arrival="132.00" arrivalLane="N_out_1" arrivalPos="189.60" arrivalSpeed="11.87" duration="39.00" routeLength="292.20" waitingTime="4.00" waitingCount="1" stopTime="0.00" timeLoss="15.46" rerouteNo="0" devices="vehroute_flow_5_phase1_S_straight.7 tripinfo_flow_5_phase1_S_straight.7" vType="bus" speedFactor="0.90" vaporized=""/>
    <tripinfo id="flow_4_phase1_N_uturn.1" depart="67.00" departLane="N_in_1" departPos="124.88" departSpeed="0.01" departDelay="0.96" arrival="135.00" arrivalLane="N_out_1" arrivalPos="189.60" arrivalSpeed="12.51" duration="68.00" routeLength="258.99" waitingTime="32.00" waitingCount="3" stopTime="0.00" timeLoss="47.16" rerouteNo="0" devices="vehroute_flow_4_phase1_N_uturn.1 tripinfo_flow_4_phase1_N_uturn.1" vType="moto" speedFactor="0.94" vaporized=""/>
    <tripinfo id="flow_6_phase1_S_left.3" depart="101.00" departLane="S_in_1" departPos="20.79" departSpeed="6.02" departDelay="0.64" arrival="135.00" arrivalLane="W_out_1" arrivalPos="189.60" arrivalSpeed="14.88" duration="34.00" routeLength="377.76" waitingTime="0.00" waitingCount="0" stopTime="0.00" timeLoss="8.27" rerouteNo="0" devices="vehroute_flow_6_phase1_S_left.3 tripinfo_flow_6_phase1_S_left.3" vType="car" speedFactor="1.10" vaporized=""/>