<?xml version="1.0" encoding="UTF-8"?>

<!-- generated on 2025-12-08 21:44:11 by Eclipse SUMO sumo Version 1.18.0
<configuration xmlns:xsi="http://www.w3.org/2001/XMLSchema-instance" xsi:noNamespaceSchemaLocation="http://sumo.dlr.de/xsd/sumoConfiguration.xsd">

    <input>
        <net-file value="nets/60p2k/net.net.xml"/>
        <route-files value="nets/60p2k/route_temp_281_124147880884016_33742306.rou.xml"/>
    </input>

    <output>
        <summary-output value="result_ddqn_1.9_0.4/summary_ep_12.xml"/>
        <tripinfo-output value="result_ddqn_1.9_0.4/tripinfo_ep_12.xml"/>
        <vehroute-output value="result_ddqn_1.9_0.4/vehroute_ep_12.xml"/>
    </output>

    <time>
        <begin value="0"/>
    </time>

    <report>
        <verbose value="true"/>
        <no-warnings value="true"/>
        <no-step-log value="true"/>
    </report>

    <traci_server>
        <remote-port value="45057"/>
    </traci_server>

    <gui_only>
        <gui-settings-file value="nets/60p2k/gui-settings.xml"/>
        <quit-on-end value="true"/>
    </gui_only>

</configuration>
-->

<tripinfos xmlns:xsi="http://www.w3.org/2001/XMLSchema-instance" xsi:noNamespaceSchemaLocation="http://sumo.dlr.de/xsd/tripinfo_file.xsd">
    <tripinfo id="flow_3_phase1_N_right.0" depart="0.00" departLane="S_in_0" departPos="103.38" departSpeed="3.75" departDelay="0.00" arrival="24.00" arrivalLane="E_out_0" arrivalPos="189.60" arrivalSpeed="14.36" duration="24.00" routeLength="284.85" waitingTime="0.00" waitingCount="0" stopTime="0.00" timeLoss="4.66" rerouteNo="0" devices="vehroute_flow_3_phase1_N_right.0 tripinfo_flow_3_phase1_N_right.0" vType="car" speedFactor="1.09" vaporized=""/>
    <tripinfo id="flow_8_phase1_S_uturn.0" depart="0.00" departLane="N_in_0" departPos="120.11" departSpeed="4.48" departDelay="0.00" arrival="24.00" arrivalLane="E_out_1" arrivalPos="189.60" arrivalSpeed="14.52" duration="24.00" routeLength="278.44" waitingTime="0.00" waitingCount="0" stopTime="0.00" timeLoss="3.29" rerouteNo="0" devices="vehroute_flow_8_phase1_S_uturn.0 tripinfo_flow_8_phase1_S_uturn.0" vType="moto" speedFactor="1.05" vaporized=""/>
    <tripinfo id="flow_6_phase1_S_left.0" depart="0.00" departLane="S_in_1" departPos="166.01" departSpeed="0.74" departDelay="0.00" arrival="25.00" arrivalLane="W_out_1" arrivalPos="189.60" arrivalSpeed="11.57" duration="25.00" routeLength="232.54" waitingTime="0.00" waitingCount="0" stopTime="0.00" timeLoss="4.50" rerouteNo="0" devices="vehroute_flow_6_phase1_S_left.0 tripinfo_flow_6_phase1_S_left.0" vType="moto" speedFactor="0.88" vaporized=""/>
    <tripinfo id="flow_4_phase1_N_uturn.0" depart="0.00" departLane="N_in_1" departPos="127.60" departSpeed="0.08" departDelay="0.00" arrival="28.00" arrivalLane="N_out_1" arrivalPos="189.60" arrivalSpeed="11.91" duration="28.00" routeLength="256.27" waitingTime="0.00" waitingCount="0" stopTime="0.00" timeLoss="7.08" rerouteNo="0" devices="vehroute_flow_4_phase1_N_uturn.0 tripinfo_flow_4_phase1_N_uturn.0" vType="car" speedFactor="0.92" vaporized=""/>
    <tripinfo id="flow_10_phase1_E_left.0" depart="0.00" departLane="N_in_0" departPos="44.88" departSpeed="7.69" departDelay="0.00" arrival="33.00" arrivalLane="E_out_1" arrivalPos="189.60" arrivalSpeed="14.04" duration="33.00" routeLength="353.67" waitingTime="0.00" waitingCount="0" stopTime="0.00" timeLoss="6.79" rerouteNo="0" devices="vehroute_flow_10_phase1_E_left.0 tripinfo_flow_10_phase1_E_left.0" vType="truck" speedFactor="1.02" vaporized=""/>
    <tripinfo id="flow_5_phase1_S_straight.0" depart="0.00" departLane="W_in_1" departPos="107.37" departSpeed="7.21" departDelay="0.00" arrival="35.00" arrivalLane="E_out_0" arrivalPos="189.60" arrivalSpeed="14.75" duration="35.00" routeLength="292.63" waitingTime="5.00" waitingCount="1" stopTime="0.00" timeLoss="15.91" rerouteNo="0" devices="vehroute_flow_5_phase1_S_straight.0 tripinfo_flow_5_phase1_S_straight.0" vType="moto" speedFactor="1.15" vaporized=""/>
    <tripinfo id="flow_12_phase1_E_uturn.0" depart="0.00" departLane="E_in_0" departPos="129.89" departSpeed="13.76" departDelay="0.00" arrival="36.00" arrivalLane="E_out_1" arrivalPos="189.60" arrivalSpeed="14.15" duration="36.00" routeLength="253.98" waitingTime="6.00" waitingCount="2" stopTime="0.00" timeLoss="16.58" rerouteNo="0" devices="vehroute_flow_12_phase1_E_uturn.0 tripinfo_flow_12_phase1_E_uturn.0" vType="moto" speedFactor="1.03" vaporized=""/>
    <tripinfo id="flow_16_phase1_W_uturn.0" depart="0.00" departLane="W_in_1" departPos="126.68" departSpeed="1.28" departDelay="0.00" arrival="36.00" arrivalLane="W_out_1" arrivalPos="189.60" arrivalSpeed="13.23" duration="36.00" routeLength="257.19" waitingTime="7.00" waitingCount="1" stopTime="0.00" timeLoss="16.38" rerouteNo="0" devices="vehroute_flow_16_phase1_W_uturn.0 tripinfo_flow_16_phase1_W_uturn.0" vType="moto" speedFactor="1.04" vaporized=""/>
    <tripinfo id="flow_15_phase1_W_right.0" depart="0.00" departLane="W_in_1" departPos="45.77" departSpeed="1.98" departDelay="0.00" arrival="40.00" arrivalLane="S_out_0" arrivalPos="189.60" arrivalSpeed="11.14" duration="40.00" routeLength="342.46" waitingTime="1.00" waitingCount="1" stopTime="0.00" timeLoss="9.95" rerouteNo="0" devices="vehroute_flow_15_phase1_W_right.0 tripinfo_flow_15_phase1_W_right.0" vType="moto" speedFactor="0.85" vaporized=""/>
    <tripinfo id="flow_9_phase1_E_straight.0" depart="0.00" departLane="E_in_0" departPos="168.29" departSpeed="9.83" departDelay="0.00" arrival="41.00" arrivalLane="W_out_0" arrivalPos="189.60" arrivalSpeed="11.81" duration="41.00" routeLength="231.71" waitingTime="12.00" waitingCount="1" stopTime="0.00" timeLoss="21.69" rerouteNo="0" devices="vehroute_flow_9_phase1_E_straight.0 tripinfo_flow_9_phase1_E_straight.0" vType="truck" speedFactor="0.90" vaporized=""/>
    <tripinfo id="flow_11_phase1_E_right.0" depart="0.00" departLane="E_in_1" departPos="144.95" departSpeed="4.02" departDelay="0.00" arrival="42.00" arrivalLane="N_out_0" arrivalPos="189.60" arrivalSpeed="12.61" duration="42.00" routeLength="243.28" waitingTime="10.00" waitingCount="1" stopTime="0.00" timeLoss="22.04" rerouteNo="0" devices="vehroute_flow_11_phase1_E_right.0 tripinfo_flow_11_phase1_E_right.0" vType="bus" speedFactor="0.96" vaporized=""/>
    <tripinfo id="flow_13_phase1_W_straight.0" depart="0.00" departLane="W_in_0" departPos="23.77" departSpeed="1.48" departDelay="0.00" arrival="43.00" arrivalLane="E_out_0" arrivalPos="189.60" arrivalSpeed="11.22" duration="43.00" routeLength="376.23" waitingTime="0.00" waitingCount="0" stopTime="0.00" timeLoss="9.60" rerouteNo="0" devices="vehroute_flow_13_phase1_W_straight.0 tripinfo_flow_13_phase1_W_straight.0" vType="container" speedFactor="0.82" vaporized=""/>
    <tripinfo id="flow_1_phase1_N_straight.0" depart="0.00" departLane="E_in_0" departPos="8.62" departSpeed="8.51" departDelay="0.00" arrival="44.00" arrivalLane="W_out_1" arrivalPos="189.60" arrivalSpeed="11.82" duration="44.00" routeLength="391.38" waitingTime="0.00" waitingCount="0" stopTime="0.00" timeLoss="10.79" rerouteNo="0" devices="vehroute_flow_1_phase1_N_straight.0 tripinfo_flow_1_phase1_N_straight.0" vType="bus" speedFactor="0.86" vaporized=""/>
    <tripinfo id="flow_9_phase1_E_straight.1" depart="13.00" departLane="E_in_0" departPos="131.13" departSpeed="9.54" departDelay="0.12" arrival="46.00" arrivalLane="W_out_1" arrivalPos="189.60" arrivalSpeed="15.79" duration="33.00" routeLength="268.87" waitingTime="0.00" waitingCount="0" stopTime="0.00" timeLoss="15.67" rerouteNo="0" devices="vehroute_flow_9_phase1_E_straight.1 tripinfo_flow_9_phase1_E_straight.1" vType="moto" speedFactor="1.16" vaporized=""/>
    <tripinfo id="flow_14_phase1_W_left.0" depart="0.00" departLane="W_in_1" departPos="50.07" departSpeed="13.54" departDelay="0.00" arrival="47.00" arrivalLane="N_out_1" arrivalPos="189.60" arrivalSpeed="13.48" duration="47.00" routeLength="348.48" waitingTime="12.00" waitingCount="2" stopTime="0.00" timeLoss="21.45" rerouteNo="0" devices="vehroute_flow_14_phase1_W_left.0 tripinfo_flow_14_phase1_W_left.0" vType="moto" speedFactor="1.01" vaporized=""/>
    <tripinfo id="flow_2_phase1_N_left.0" depart="0.00" departLane="N_in_1" departPos="8.27" departSpeed="8.33" departDelay="0.00" arrival="49.00" arrivalLane="E_out_1" arrivalPos="189.60" arrivalSpeed="14.07" duration="49.00" routeLength="390.28" waitingTime="12.00" waitingCount="1" stopTime="0.00" timeLoss="20.40" rerouteNo="0" devices="vehroute_flow_2_phase1_N_left.0 tripinfo_flow_2_phase1_N_left.0" vType="moto" speedFactor="1.02" vaporized=""/>
    <tripinfo id="flow_13_phase1_W_straight.1" depart="14.00" departLane="W_in_1" departPos="121.65" departSpeed="2.86" departDelay="0.62" arrival="51.00" arrivalLane="E_out_1" arrivalPos="189.60" arrivalSpeed="14.47" duration="37.00" routeLength="278.35" waitingTime="7.00" waitingCount="2" stopTime="0.00" timeLoss="18.43" rerouteNo="0" devices="vehroute_flow_13_phase1_W_straight.1 tripinfo_flow_13_phase1_W_straight.1" vType="car" speedFactor="1.12" vaporized=""/>
    <tripinfo id="flow_6_phase1_S_left.1" depart="34.00" departLane="S_in_1" departPos="110.92" departSpeed="11.99" departDelay="0.55" arrival="57.00" arrivalLane="W_out_1" arrivalPos="189.60" arrivalSpeed="14.07" duration="23.00" routeLength="287.63" waitingTime="0.00" waitingCount="0" stopTime="0.00" timeLoss="1.86" rerouteNo="0" devices="vehroute_flow_6_phase1_S_left.1 tripinfo_flow_6_phase1_S_left.1" vType="moto" speedFactor="1.05" vaporized=""/>
    <tripinfo id="flow_7_phase1_S_right.0" depart="0.00" departLane="S_in_0" departPos="8.76" departSpeed="8.07" departDelay="0.00" arrival="58.00" arrivalLane="E_out_0" arrivalPos="189.60" arrivalSpeed="11.48" duration="58.00" routeLength="379.47" waitingTime="12.00" waitingCount="1" stopTime="0.00" timeLoss="24.52" rerouteNo="0" devices="vehroute_flow_7_phase1_S_right.0 tripinfo_flow_7_phase1_S_right.0" vType="container" speedFactor="0.85" vaporized=""/>
    <tripinfo id="flow_5_phase1_S_straight.1" depart="14.00" departLane="W_in_1" departPos="31.93" departSpeed="9.28" departDelay="0.77" arrival="60.00" arrivalLane="E_out_0" arrivalPos="189.60" arrivalSpeed="14.97" duration="46.00" routeLength="368.07" waitingTime="13.00" waitingCount="1" stopTime="0.00" timeLoss="22.87" rerouteNo="0" devices="vehroute_flow_5_phase1_S_straight.1 tripinfo_flow_5_phase1_S_straight.1" vType="moto" speedFactor="1.19" vaporized=""/>
    <tripinfo id="flow_10_phase1_E_left.1" depart="34.00" departLane="N_in_1" departPos="185.21" departSpeed="3.70" departDelay="0.50" arrival="60.00" arrivalLane="E_out_1" arrivalPos="189.60" arrivalSpeed="10.34" duration="26.00" routeLength="213.34" waitingTime="0.00" waitingCount="0" stopTime="0.00" timeLoss="4.72" rerouteNo="0" devices="vehroute_flow_10_phase1_E_left.1 tripinfo_flow_10_phase1_E_left.1" vType="truck" speedFactor="0.77" vaporized=""/>
    <tripinfo id="flow_15_phase1_W_right.1" depart="33.00" departLane="W_in_0" departPos="73.90" departSpeed="9.22" departDelay="0.16" arrival="61.00" arrivalLane="S_out_0" arrivalPos="189.60" arrivalSpeed="14.58" duration="28.00" routeLength="314.33" waitingTime="1.00" waitingCount="1" stopTime="0.00" timeLoss="6.52" rerouteNo="0" devices="vehroute_flow_15_phase1_W_right.1 tripinfo_flow_15_phase1_W_right.1" vType="moto" speedFactor="1.08" vaporized=""/>
    <tripinfo id="flow_1_phase1_N_straight.2" depart="28.00" departLane="E_in_1" departPos="107.53" departSpeed="1.11" departDelay="0.97" arrival="63.00" arrivalLane="W_out_0" arrivalPos="189.60" arrivalSpeed="11.87" duration="35.00" routeLength="292.47" waitingTime="4.00" waitingCount="1" stopTime="0.00" timeLoss="11.70" rerouteNo="0" devices="vehroute_flow_1_phase1_N_straight.2 tripinfo_flow_1_phase1_N_straight.2" vType="moto" speedFactor="0.93" vaporized=""/>
    <tripinfo id="flow_11_phase1_E_right.1" depart="33.00" departLane="E_in_1" departPos="128.68" departSpeed="3.06" departDelay="0.51" arrival="63.00" arrivalLane="N_out_0" arrivalPos="189.60" arrivalSpeed="14.09" duration="30.00" routeLength="259.55" waitingTime="2.00" waitingCount="1" stopTime="0.00" timeLoss="10.81" rerouteNo="0" devices="vehroute_flow_11_phase1_E_right.1 tripinfo_flow_11_phase1_E_right.1" vType="moto" speedFactor="1.04" vaporized=""/>
    <tripinfo id="flow_9_phase1_E_straight.2" depart="26.00" departLane="E_in_1" departPos="52.87" departSpeed="0.38" departDelay="0.25" arrival="64.00" arrivalLane="W_out_1" arrivalPos="189.60" arrivalSpeed="13.66" duration="38.00" routeLength="347.13" waitingTime="2.00" waitingCount="1" stopTime="0.00" timeLoss="12.49" rerouteNo="0" devices="vehroute_flow_9_phase1_E_straight.2 tripinfo_flow_9_phase1_E_straight.2" vType="moto" speedFactor="0.99" vaporized=""/>
    <tripinfo id="flow_1_phase1_N_straight.1" depart="14.00" departLane="E_in_1" departPos="58.36" departSpeed="11.64" departDelay="0.48" arrival="65.00" arrivalLane="W_out_0" arrivalPos="189.60" arrivalSpeed="12.09" duration="51.00" routeLength="341.64" waitingTime="13.00" waitingCount="1" stopTime="0.00" timeLoss="21.92" rerouteNo="0" devices="vehroute_flow_1_phase1_N_straight.1 tripinfo_flow_1_phase1_N_straight.1" vType="moto" speedFactor="0.87" vaporized=""/>
    <tripinfo id="flow_5_phase1_S_straight.2" depart="27.00" departLane="W_in_1" departPos="12.70" departSpeed="12.41" departDelay="0.54" arrival="65.00" arrivalLane="E_out_0" arrivalPos="189.60" arrivalSpeed="12.59" duration="38.00" routeLength="387.30" waitingTime="0.00" waitingCount="0" stopTime="0.00" timeLoss="8.76" rerouteNo="0" devices="vehroute_flow_5_phase1_S_straight.2 tripinfo_flow_5_phase1_S_straight.2" vType="moto" speedFactor="0.96" vaporized=""/>
    <tripinfo id="flow_1_phase1_N_straight.3" depart="41.00" departLane="E_in_0" departPos="132.62" departSpeed="5.49" departDelay="0.45" arrival="66.00" arrivalLane="W_out_0" arrivalPos="189.60" arrivalSpeed="12.63" duration="25.00" routeLength="267.38" waitingTime="0.00" waitingCount="0" stopTime="0.00" timeLoss="7.90" rerouteNo="0" devices="vehroute_flow_1_phase1_N_straight.3 tripinfo_flow_1_phase1_N_straight.3" vType="moto" speedFactor="1.20" vaporized=""/>
    <tripinfo id="flow_13_phase1_W_straight.2" depart="27.00" departLane="W_in_1" departPos="59.51" departSpeed="13.32" departDelay="0.23" arrival="67.00" arrivalLane="E_out_1" arrivalPos="189.60" arrivalSpeed="13.18" duration="40.00" routeLength="340.49" waitingTime="3.00" waitingCount="1" stopTime="0.00" timeLoss="14.18" rerouteNo="0" devices="vehroute_flow_13_phase1_W_straight.2 tripinfo_flow_13_phase1_W_straight.2" vType="bus" speedFactor="0.97" vaporized=""/>
    <tripinfo id="flow_13_phase1_W_straight.3" depart="41.00" departLane="W_in_0" departPos="125.48" departSpeed="6.79" departDelay="0.85" arrival="67.00" arrivalLane="E_out_0" arrivalPos="189.60" arrivalSpeed="14.29" duration="26.00" routeLength="274.52" waitingTime="0.00" waitingCount="0" stopTime="0.00" timeLoss="6.27" rerouteNo="0" devices="vehroute_flow_13_phase1_W_straight.3 tripinfo_flow_13_phase1_W_straight.3" vType="car" speedFactor="1.05" vaporized=""/>
    <tripinfo id="flow_9_phase1_E_straight.3" depart="39.00" departLane="E_in_0" departPos="86.42" departSpeed="8.41" departDelay="0.37" arrival="68.00" arrivalLane="W_out_1" arrivalPos="189.60" arrivalSpeed="11.37" duration="29.00" routeLength="313.58" waitingTime="0.00" waitingCount="0" stopTime="0.00" timeLoss="2.17" rerouteNo="0" devices="vehroute_flow_9_phase1_E_straight.3 tripinfo_flow_9_phase1_E_straight.3" vType="bus" speedFactor="0.85" vaporized=""/>
    <tripinfo id="flow_5_phase1_S_straight.3" depart="40.00" departLane="W_in_0" departPos="56.18" departSpeed="8.58" departDelay="0.31" arrival="68.00" arrivalLane="E_out_0" arrivalPos="189.60" arrivalSpeed="14.19" duration="28.00" routeLength="343.82" waitingTime="0.00" waitingCount="0" stopTime="0.00" timeLoss="4.67" rerouteNo="0" devices="vehroute_flow_5_phase1_S_straight.3 tripinfo_flow_5_phase1_S_straight.3" vType="moto" speedFactor="1.08" vaporized=""/>
    <tripinfo id="flow_2_phase1_N_left.1" depart="33.00" departLane="N_in_0" departPos="8.88" departSpeed="2.82" departDelay="0.32" arrival="78.00" arrivalLane="E_out_1" arrivalPos="189.60" arrivalSpeed="14.75" duration="45.00" routeLength="389.67" waitingTime="9.00" waitingCount="2" stopTime="0.00" timeLoss="19.35" rerouteNo="0" devices="vehroute_flow_2_phase1_N_left.1 tripinfo_flow_2_phase1_N_left.1" vType="moto" speedFactor="1.12" vaporized=""/>
    <tripinfo id="flow_14_phase1_W_left.1" depart="35.00" departLane="W_in_1" departPos="93.41" departSpeed="7.95" departDelay="0.53" arrival="79.00" arrivalLane="N_out_1" arrivalPos="189.60" arrivalSpeed="12.42" duration="44.00" routeLength="305.14" waitingTime="0.00" waitingCount="0" stopTime="0.00" timeLoss="18.60" rerouteNo="0" devices="vehroute_flow_14_phase1_W_left.1 tripinfo_flow_14_phase1_W_left.1" vType="container" speedFactor="0.91" vaporized=""/>
    <tripinfo id="flow_3_phase1_N_right.1" depart="35.00" departLane="S_in_0" departPos="19.85" departSpeed="3.71" departDelay="0.82" arrival="85.00" arrivalLane="E_out_1" arrivalPos="189.60" arrivalSpeed="11.17" duration="50.00" routeLength="368.38" waitingTime="6.00" waitingCount="1" stopTime="0.00" timeLoss="18.94" rerouteNo="0" devices="vehroute_flow_3_phase1_N_right.1 tripinfo_flow_3_phase1_N_right.1" vType="moto" speedFactor="0.88" vaporized=""/>
    <tripinfo id="flow_7_phase1_S_right.1" depart="33.00" departLane="S_in_1" departPos="66.71" departSpeed="7.87" departDelay="0.51" arrival="86.00" arrivalLane="E_out_0" arrivalPos="189.60" arrivalSpeed="10.66" duration="53.00" routeLength="321.52" waitingTime="9.00" waitingCount="1" stopTime="0.00" timeLoss="22.26" rerouteNo="0" devices="vehroute_flow_7_phase1_S_right.1 tripinfo_flow_7_phase1_S_right.1" vType="container" speedFactor="0.78" vaporized=""/>
    <tripinfo id="flow_8_phase1_S_uturn.1" depart="66.00" departLane="N_in_1" departPos="162.40" departSpeed="1.34" departDelay="0.07" arrival="93.00" arrivalLane="E_out_1" arrivalPos="189.60" arrivalSpeed="12.97" duration="27.00" routeLength="236.15" waitingTime="0.00" waitingCount="0" stopTime="0.00" timeLoss="7.80" rerouteNo="0" devices="vehroute_flow_8_phase1_S_uturn.1 tripinfo_flow_8_phase1_S_uturn.1" vType="truck" speedFactor="0.94" vaporized=""/>
    <tripinfo id="flow_7_phase1_S_right.2" depart="65.00" departLane="S_in_1" departPos="29.12" departSpeed="12.08" departDelay="0.01" arrival="94.00" arrivalLane="E_out_0" arrivalPos="189.60" arrivalSpeed="13.32" duration="29.00" routeLength="359.11" waitingTime="0.00" waitingCount="0" stopTime="0.00" timeLoss="2.95" rerouteNo="0" devices="vehroute_flow_7_phase1_S_right.2 tripinfo_flow_7_phase1_S_right.2" vType="moto" speedFactor="1.03" vaporized=""/>
    <tripinfo id="flow_2_phase1_N_left.2" depart="66.00" departLane="N_in_1" departPos="112.37" departSpeed="10.40" departDelay="0.64" arrival="95.00" arrivalLane="E_out_1" arrivalPos="189.60" arrivalSpeed="15.21" duration="29.00" routeLength="286.18" waitingTime="0.00" waitingCount="0" stopTime="0.00" timeLoss="8.77" rerouteNo="0" devices="vehroute_flow_2_phase1_N_left.2 tripinfo_flow_2_phase1_N_left.2" vType="emergency" speedFactor="1.10" vaporized=""/>
    <tripinfo id="flow_11_phase1_E_right.2" depart="65.00" departLane="E_in_0" departPos="52.57" departSpeed="9.36" departDelay="0.02" arrival="102.00" arrivalLane="N_out_0" arrivalPos="189.60" arrivalSpeed="15.68" duration="37.00" routeLength="335.66" waitingTime="7.00" waitingCount="1" stopTime="0.00" timeLoss="15.31" rerouteNo="0" devices="vehroute_flow_11_phase1_E_right.2 tripinfo_flow_11_phase1_E_right.2" vType="moto" speedFactor="1.14" vaporized=""/>
    <tripinfo id="flow_9_phase1_E_straight.4" depart="52.00" departLane="E_in_1" departPos="135.04" departSpeed="3.72" departDelay="0.49" arrival="103.00" arrivalLane="W_out_1" arrivalPos="189.60" arrivalSpeed="12.77" duration="51.00" routeLength="264.96" waitingTime="17.00" waitingCount="1" stopTime="0.00" timeLoss="30.25" rerouteNo="0" devices="vehroute_flow_9_phase1_E_straight.4 tripinfo_flow_9_phase1_E_straight.4" vType="bus" speedFactor="0.95" vaporized=""/>
    <tripinfo id="flow_13_phase1_W_straight.4" depart="54.00" departLane="W_in_0" departPos="91.01" departSpeed="4.49" departDelay="0.46" arrival="104.00" arrivalLane="E_out_0" arrivalPos="189.60" arrivalSpeed="11.53" duration="50.00" routeLength="308.99" waitingTime="11.00" waitingCount="1" stopTime="0.00" timeLoss="24.39" rerouteNo="0" devices="vehroute_flow_13_phase1_W_straight.4 tripinfo_flow_13_phase1_W_straight.4" vType="bus" speedFactor="0.87" vaporized=""/>
    <tripinfo id="flow_1_phase1_N_straight.4" depart="55.00" departLane="E_in_0" departPos="128.04" departSpeed="4.99" departDelay="0.94" arrival="104.00" arrivalLane="W_out_0" arrivalPos="189.60" arrivalSpeed="12.49" duration="49.00" routeLength="271.96" waitingTime="15.00" waitingCount="1" stopTime="0.00" timeLoss="27.06" rerouteNo="0" devices="vehroute_flow_1_phase1_N_straight.4 tripinfo_flow_1_phase1_N_straight.4" vType="truck" speedFactor="0.92" vaporized=""/>
    <tripinfo id="flow_9_phase1_E_straight.5" depart="65.00" departLane="E_in_0" departPos="125.76" departSpeed="4.77" departDelay="0.62" arrival="105.00" arrivalLane="W_out_1" arrivalPos="189.60" arrivalSpeed="13.49" duration="40.00" routeLength="274.24" waitingTime="10.00" waitingCount="1" stopTime="0.00" timeLoss="19.59" rerouteNo="0" devices="vehroute_flow_9_phase1_E_straight.5 tripinfo_flow_9_phase1_E_straight.5" vType="moto" speedFactor="1.00" vaporized=""/>
    <tripinfo id="flow_15_phase1_W_right.2" depart="66.00" departLane="W_in_0" departPos="168.21" departSpeed="0.18" departDelay="0.32" arrival="105.00" arrivalLane="S_out_0" arrivalPos="189.60" arrivalSpeed="11.10" duration="39.00" routeLength="220.02" waitingTime="10.00" waitingCount="1" stopTime="0.00" timeLoss="20.09" rerouteNo="0" devices="vehroute_flow_15_phase1_W_right.2 tripinfo_flow_15_phase1_W_right.2" vType="moto" speedFactor="0.89" vaporized=""/>
    <tripinfo id="flow_5_phase1_S_straight.4" depart="53.00" departLane="W_in_0" departPos="26.76" departSpeed="9.62" departDelay="0.08" arrival="106.00" arrivalLane="E_out_1" arrivalPos="189.60" arrivalSpeed="13.25" duration="53.00" routeLength="373.24" waitingTime="10.00" waitingCount="1" stopTime="0.00" timeLoss="24.77" rerouteNo="0" devices="vehroute_flow_5_phase1_S_straight.4 tripinfo_flow_5_phase1_S_straight.4" vType="container" speedFactor="0.97" vaporized=""/>
    <tripinfo id="flow_13_phase1_W_straight.5" depart="67.00" departLane="W_in_1" departPos="21.68" departSpeed="6.53" departDelay="0.08" arrival="106.00" arrivalLane="E_out_0" arrivalPos="189.60" arrivalSpeed="15.21" duration="39.00" routeLength="378.32" waitingTime="0.00" waitingCount="0" stopTime="0.00" timeLoss="14.95" rerouteNo="0" devices="vehroute_flow_13_phase1_W_straight.5 tripinfo_flow_13_phase1_W_straight.5" vType="moto" speedFactor="1.14" vaporized=""/>
    <tripinfo id="flow_16_phase1_W_uturn.1" depart="67.00" departLane="W_in_1" departPos="74.60" departSpeed="11.48" departDelay="0.80" arrival="106.00" arrivalLane="W_out_1" arrivalPos="189.60" arrivalSpeed="13.82" duration="39.00" routeLength="309.27" waitingTime="3.00" waitingCount="1" stopTime="0.00" timeLoss="16.39" rerouteNo="0" devices="vehroute_flow_16_phase1_W_uturn.1 tripinfo_flow_16_phase1_W_uturn.1" vType="moto" speedFactor="1.04" vaporized=""/>
    <tripinfo id="flow_5_phase1_S_straight.5" depart="67.00" departLane="W_in_1" departPos="89.17" departSpeed="11.39" departDelay="0.85" arrival="108.00" arrivalLane="E_out_1" arrivalPos="189.60" arrivalSpeed="13.02" duration="41.00" routeLength="310.83" waitingTime="4.00" waitingCount="1" stopTime="0.00" timeLoss="18.91" rerouteNo="0" devices="vehroute_flow_5_phase1_S_straight.5 tripinfo_flow_5_phase1_S_straight.5" vType="moto" speedFactor="1.03" vaporized=""/>
    <tripinfo id="flow_12_phase1_E_uturn.1" depart="66.00" departLane="E_in_0" departPos="179.13" departSpeed="0.95" departDelay="0.19" arrival="110.00" arrivalLane="E_out_1" arrivalPos="189.60" arrivalSpeed="12.02" duration="44.00" routeLength="204.74" waitingTime="20.00" waitingCount="2" stopTime="0.00" timeLoss="27.43" rerouteNo="0" devices="vehroute_flow_12_phase1_E_uturn.1 tripinfo_flow_12_phase1_E_uturn.1" vType="moto" speedFactor="0.95" vaporized=""/>
    <tripinfo id="flow_3_phase1_N_right.2" depart="69.00" departLane="S_in_0" departPos="63.10" departSpeed="12.95" departDelay="0.63" arrival="110.00" arrivalLane="E_out_0" arrivalPos="189.60" arrivalSpeed="15.06" duration="41.00" routeLength="325.13" waitingTime="10.00" waitingCount="1" stopTime="0.00" timeLoss="18.53" rerouteNo="0" devices="vehroute_flow_3_phase1_N_right.2 tripinfo_flow_3_phase1_N_right.2" vType="moto" speedFactor="1.10" vaporized=""/>
    <tripinfo id="flow_10_phase1_E_left.2" depart="67.00" departLane="N_in_1" departPos="92.22" departSpeed="0.17" departDelay="0.00" arrival="111.00" arrivalLane="E_out_1" arrivalPos="189.60" arrivalSpeed="13.81" duration="44.00" routeLength="306.33" waitingTime="12.00" waitingCount="1" stopTime="0.00" timeLoss="22.67" rerouteNo="0" devices="vehroute_flow_10_phase1_E_left.2 tripinfo_flow_10_phase1_E_left.2" vType="moto" speedFactor="1.07" vaporized=""/>
    <tripinfo id="flow_4_phase1_N_uturn.1" depart="67.00" departLane="N_in_0" departPos="31.76" departSpeed="11.77" departDelay="0.96" arrival="114.00" arrivalLane="N_out_1" arrivalPos="189.60" arrivalSpeed="12.40" duration="47.00" routeLength="352.11" waitingTime="11.00" waitingCount="1" stopTime="0.00" timeLoss="18.04" rerouteNo="0" devices="vehroute_flow_4_phase1_N_uturn.1 tripinfo_flow_4_phase1_N_uturn.1" vType="moto" speedFactor="0.94" vaporized=""/>
    <tripinfo id="flow_6_phase1_S_left.2" depart="67.00" departLane="S_in_1" departPos="124.88" departSpeed="0.01" departDelay="0.10" arrival="116.00" arrivalLane="W_out_1" arrivalPos="189.60" arrivalSpeed="11.77" duration="49.00" routeLength="273.67" waitingTime="11.00" waitingCount="1" stopTime="0.00" timeLoss="25.61" rerouteNo="0" devices="vehroute_flow_6_phase1_S_left.2 tripinfo_flow_6_phase1_S_left.2" vType="truck" speedFactor="0.89" vaporized=""/>
    <tripinfo id="flow_9_phase1_E_straight.6" depart="78.00" departLane="E_in_1" departPos="84.30" departSpeed="10.26" departDelay="0.74" arrival="124.00" arrivalLane="W_out_1" arrivalPos="189.60" arrivalSpeed="13.77" duration="46.00" routeLength="315.70" waitingTime="12.00" waitingCount="1" stopTime="0.00" timeLoss="23.68" rerouteNo="0" devices="vehroute_flow_9_phase1_E_straight.6 tripinfo_flow_9_phase1_E_straight.6" vType="moto" speedFactor="1.02" vaporized=""/>
    <tripinfo id="flow_13_phase1_W_straight.6" depart="81.00" departLane="W_in_0" departPos="149.69" departSpeed="1.76" departDelay="0.70" arrival="124.00" arrivalLane="E_out_0" arrivalPos="189.60" arrivalSpeed="12.87" duration="43.00" routeLength="250.31" waitingTime="15.00" waitingCount="1" stopTime="0.00" timeLoss="24.25" rerouteNo="0" devices="vehroute_flow_13_phase1_W_straight.6 tripinfo_flow_13_phase1_W_straight.6" vType="car" speedFactor="0.98" vaporized=""/>
    <tripinfo id="flow_1_phase1_N_straight.5" depart="68.00" departLane="E_in_1" departPos="148.65" departSpeed="6.11" departDelay="0.42" arrival="126.00" arrivalLane="W_out_0" arrivalPos="189.60" arrivalSpeed="11.81" duration="58.00" routeLength="251.35" waitingTime="23.00" waitingCount="4" stopTime="0.00" timeLoss="37.72" rerouteNo="0" devices="vehroute_flow_1_phase1_N_straight.5 tripinfo_flow_1_phase1_N_straight.5" vType="moto" speedFactor="0.90" vaporized=""/>
    <tripinfo id="flow_9_phase1_E_straight.7" depart="91.00" departLane="E_in_1" departPos="174.35" departSpeed="2.74" departDelay="0.86" arrival="126.00" arrivalLane="W_out_1" arrivalPos="189.60" arrivalSpeed="13.36" duration="35.00" routeLength="225.65" waitingTime="11.00" waitingCount="1" stopTime="0.00" timeLoss="18.74" rerouteNo="0" devices="vehroute_flow_9_phase1_E_straight.7 tripinfo_flow_9_phase1_E_straight.7" vType="moto" speedFactor="1.01" vaporized=""/>
    <tripinfo id="flow_1_phase1_N_straight.6" depart="82.00" departLane="E_in_0" departPos="42.85" departSpeed="1.33" departDelay="0.90" arrival="128.00" arrivalLane="W_out_0" arrivalPos="189.60" arrivalSpeed="13.58" duration="46.00" routeLength="357.15" waitingTime="9.00" waitingCount="1" stopTime="0.00" timeLoss="19.03" rerouteNo="0" devices="vehroute_flow_1_phase1_N_straight.6 tripinfo_flow_1_phase1_N_straight.6" vType="car" speedFactor="0.98" vaporized=""/>
    <tripinfo id="flow_1_phase1_N_straight.7" depart="95.00" departLane="E_in_0" departPos="107.80" departSpeed="3.26" departDelay="0.39" arrival="128.00" arrivalLane="W_out_1" arrivalPos="189.60" arrivalSpeed="14.12" duration="33.00" routeLength="292.20" waitingTime="2.00" waitingCount="1" stopTime="0.00" timeLoss="12.47" rerouteNo="0" devices="vehroute_flow_1_phase1_N_straight.7 tripinfo_flow_1_phase1_N_straight.7" vType="moto" speedFactor="1.06" vaporized=""/>
    <tripinfo id="flow_15_phase1_W_right.3" depart="99.00" departLane="W_in_1" departPos="111.57" departSpeed="0.12" departDelay="0.49" arrival="129.00" arrivalLane="S_out_0" arrivalPos="189.60" arrivalSpeed="15.54" duration="30.00" routeLength="276.66" waitingTime="0.00" waitingCount="0" stopTime="0.00" timeLoss="12.05" rerouteNo="0" devices="vehroute_flow_15_phase1_W_right.3 tripinfo_flow_15_phase1_W_right.3" vType="moto" speedFactor="1.17" vaporized=""/>
    <tripinfo id="flow_1_phase1_N_straight.8" depart="109.00" departLane="E_in_0" departPos="157.03" departSpeed="10.29" departDelay="0.87" arrival="130.00" arrivalLane="W_out_0" arrivalPos="189.60" arrivalSpeed="13.06" duration="21.00" routeLength="242.97" waitingTime="0.00" waitingCount="0" stopTime="0.00" timeLoss="2.36" rerouteNo="0" devices="vehroute_flow_1_phase1_N_straight.8 tripinfo_flow_1_phase1_N_straight.8" vType="moto" speedFactor="0.97" vaporized=""/>