<?xml version="1.0" encoding="UTF-8"?>

<!-- generated on 2025-12-08 21:44:39 by Eclipse SUMO sumo Version 1.18.0
<configuration xmlns:xsi="http://www.w3.org/2001/XMLSchema-instance" xsi:noNamespaceSchemaLocation="http://sumo.dlr.de/xsd/sumoConfiguration.xsd">

    <input>
        <net-file value="nets/60p2k/net.net.xml"/>
        <route-files value="nets/60p2k/route_temp_281_124147880884016_33742306.rou.xml"/>
    </input>

    <output>
        <summary-output value="result_ddqn_1.9_0.4/summary_ep_13.xml"/>
        <tripinfo-output value="result_ddqn_1.9_0.4/tripinfo_ep_13.xml"/>
        <vehroute-output value="result_ddqn_1.9_0.4/vehroute_ep_13.xml"/>
    </output>

    <time>
        <begin value="0"/>
    </time>

    <report>
        <verbose value="true"/>
        <no-warnings value="true"/>
        <no-step-log value="true"/>
    </report>

    <traci_server>
        <remote-port value="47237"/>
    </traci_server>

    <gui_only>
        <gui-settings-file value="nets/60p2k/gui-settings.xml"/>
        <quit-on-end value="true"/>
    </gui_only>

</configuration>
-->

<tripinfos xmlns:xsi="http://www.w3.org/2001/XMLSchema-instance" xsi:noNamespaceSchemaLocation="http://sumo.dlr.de/xsd/tripinfo_file.xsd">
    <tripinfo id="flow_5_phase1_S_straight.0" depart="0.00" departLane="S_in_1" departPos="107.37" departSpeed="7.21" departDelay="0.00" arrival="21.00" arrivalLane="N_out_1" arrivalPos="189.60" arrivalSpeed="15.66" duration="21.00" routeLength="292.63" waitingTime="0.00" waitingCount="0" stopTime="0.00" timeLoss="2.16" rerouteNo="0" devices="vehroute_flow_5_phase1_S_straight.0 tripinfo_flow_5_phase1_S_straight.0" vType="moto" speedFactor="1.15" vaporized=""/>
    <tripinfo id="flow_6_phase1_S_left.0" depart="0.00" departLane="S_in_1" departPos="166.01" departSpeed="0.74" departDelay="0.00" arrival="25.00" arrivalLane="W_out_1" arrivalPos="189.60" arrivalSpeed="11.28" duration="25.00" routeLength="232.54" waitingTime="0.00" waitingCount="0" stopTime="0.00" timeLoss="4.24" rerouteNo="0" devices="vehroute_flow_6_phase1_S_left.0 tripinfo_flow_6_phase1_S_left.0" vType="moto" speedFactor="0.88" vaporized=""/>
    <tripinfo id="flow_4_phase1_N_uturn.0" depart="0.00" departLane="N_in_1" departPos="127.60" departSpeed="0.08" departDelay="0.00" arrival="29.00" arrivalLane="N_out_1" arrivalPos="189.60" arrivalSpeed="12.69" duration="29.00" routeLength="256.27" waitingTime="0.00" waitingCount="0" stopTime="0.00" timeLoss="7.20" rerouteNo="0" devices="vehroute_flow_4_phase1_N_uturn.0 tripinfo_flow_4_phase1_N_uturn.0" vType="car" speedFactor="0.92" vaporized=""/>
    <tripinfo id="flow_12_phase1_E_uturn.0" depart="0.00" departLane="W_in_1" departPos="129.89" departSpeed="0.43" departDelay="0.00" arrival="35.00" arrivalLane="S_out_0" arrivalPos="189.60" arrivalSpeed="14.32" duration="35.00" routeLength="258.34" waitingTime="7.00" waitingCount="1" stopTime="0.00" timeLoss="16.32" rerouteNo="0" devices="vehroute_flow_12_phase1_E_uturn.0 tripinfo_flow_12_phase1_E_uturn.0" vType="moto" speedFactor="1.03" vaporized=""/>
    <tripinfo id="flow_16_phase1_W_uturn.0" depart="0.00" departLane="W_in_0" departPos="126.68" departSpeed="11.71" departDelay="0.00" arrival="35.00" arrivalLane="W_out_1" arrivalPos="189.60" arrivalSpeed="14.32" duration="35.00" routeLength="257.19" waitingTime="11.00" waitingCount="1" stopTime="0.00" timeLoss="16.20" rerouteNo="0" devices="vehroute_flow_16_phase1_W_uturn.0 tripinfo_flow_16_phase1_W_uturn.0" vType="moto" speedFactor="1.04" vaporized=""/>
    <tripinfo id="flow_3_phase1_N_right.0" depart="0.00" departLane="W_in_0" departPos="103.38" departSpeed="3.75" departDelay="0.00" arrival="37.00" arrivalLane="E_out_0" arrivalPos="189.60" arrivalSpeed="15.15" duration="37.00" routeLength="296.62" waitingTime="5.00" waitingCount="1" stopTime="0.00" timeLoss="16.72" rerouteNo="0" devices="vehroute_flow_3_phase1_N_right.0 tripinfo_flow_3_phase1_N_right.0" vType="car" speedFactor="1.09" vaporized=""/>
    <tripinfo id="flow_7_phase1_S_right.0" depart="0.00" departLane="N_in_0" departPos="97.26" departSpeed="8.07" departDelay="0.00" arrival="37.00" arrivalLane="N_out_0" arrivalPos="189.60" arrivalSpeed="11.76" duration="37.00" routeLength="286.61" waitingTime="0.00" waitingCount="0" stopTime="0.00" timeLoss="11.23" rerouteNo="0" devices="vehroute_flow_7_phase1_S_right.0 tripinfo_flow_7_phase1_S_right.0" vType="container" speedFactor="0.85" vaporized=""/>
    <tripinfo id="flow_8_phase1_S_uturn.0" depart="0.00" departLane="E_in_0" departPos="178.04" departSpeed="8.03" departDelay="0.00" arrival="39.00" arrivalLane="E_out_1" arrivalPos="189.60" arrivalSpeed="14.33" duration="39.00" routeLength="205.83" waitingTime="14.00" waitingCount="2" stopTime="0.00" timeLoss="23.16" rerouteNo="0" devices="vehroute_flow_8_phase1_S_uturn.0 tripinfo_flow_8_phase1_S_uturn.0" vType="moto" speedFactor="1.05" vaporized=""/>
    <tripinfo id="flow_11_phase1_E_right.0" depart="0.00" departLane="E_in_1" departPos="30.17" departSpeed="10.18" departDelay="0.00" arrival="40.00" arrivalLane="N_out_0" arrivalPos="189.60" arrivalSpeed="13.14" duration="40.00" routeLength="358.06" waitingTime="2.00" waitingCount="1" stopTime="0.00" timeLoss="11.89" rerouteNo="0" devices="vehroute_flow_11_phase1_E_right.0 tripinfo_flow_11_phase1_E_right.0" vType="bus" speedFactor="0.96" vaporized=""/>
    <tripinfo id="flow_9_phase1_E_straight.0" depart="0.00" departLane="W_in_1" departPos="75.19" departSpeed="11.09" departDelay="0.00" arrival="42.00" arrivalLane="N_out_1" arrivalPos="189.60" arrivalSpeed="12.37" duration="42.00" routeLength="323.36" waitingTime="3.00" waitingCount="1" stopTime="0.00" timeLoss="15.37" rerouteNo="0" devices="vehroute_flow_9_phase1_E_straight.0 tripinfo_flow_9_phase1_E_straight.0" vType="truck" speedFactor="0.90" vaporized=""/>
    <tripinfo id="flow_13_phase1_W_straight.1" depart="14.00" departLane="W_in_1" departPos="121.65" departSpeed="2.86" departDelay="0.62" arrival="42.00" arrivalLane="E_out_1" arrivalPos="189.60" arrivalSpeed="14.79" duration="28.00" routeLength="278.35" waitingTime="0.00" waitingCount="0" stopTime="0.00" timeLoss="9.48" rerouteNo="0" devices="vehroute_flow_13_phase1_W_straight.1 tripinfo_flow_13_phase1_W_straight.1" vType="car" speedFactor="1.12" vaporized=""/>
    <tripinfo id="flow_15_phase1_W_right.0" depart="0.00" departLane="W_in_1" departPos="108.38" departSpeed="1.98" departDelay="0.00" arrival="43.00" arrivalLane="S_out_0" arrivalPos="189.60" arrivalSpeed="10.64" duration="43.00" routeLength="279.85" waitingTime="5.00" waitingCount="1" stopTime="0.00" timeLoss="17.82" rerouteNo="0" devices="vehroute_flow_15_phase1_W_right.0 tripinfo_flow_15_phase1_W_right.0" vType="moto" speedFactor="0.85" vaporized=""/>
    <tripinfo id="flow_9_phase1_E_straight.1" depart="13.00" departLane="W_in_0" departPos="131.13" departSpeed="9.54" departDelay="0.12" arrival="44.00" arrivalLane="N_out_1" arrivalPos="189.60" arrivalSpeed="15.20" duration="31.00" routeLength="267.42" waitingTime="0.00" waitingCount="0" stopTime="0.00" timeLoss="13.07" rerouteNo="0" devices="vehroute_flow_9_phase1_E_straight.1 tripinfo_flow_9_phase1_E_straight.1" vType="moto" speedFactor="1.16" vaporized=""/>
    <tripinfo id="flow_13_phase1_W_straight.0" depart="0.00" departLane="W_in_0" departPos="23.77" departSpeed="1.48" departDelay="0.00" arrival="46.00" arrivalLane="E_out_0" arrivalPos="189.60" arrivalSpeed="10.83" duration="46.00" routeLength="376.23" waitingTime="0.00" waitingCount="0" stopTime="0.00" timeLoss="12.78" rerouteNo="0" devices="vehroute_flow_13_phase1_W_straight.0 tripinfo_flow_13_phase1_W_straight.0" vType="container" speedFactor="0.82" vaporized=""/>
    <tripinfo id="flow_14_phase1_W_left.0" depart="0.00" departLane="E_in_1" departPos="50.07" departSpeed="13.54" departDelay="0.00" arrival="48.00" arrivalLane="S_out_1" arrivalPos="189.60" arrivalSpeed="12.90" duration="48.00" routeLength="348.48" waitingTime="8.00" waitingCount="2" stopTime="0.00" timeLoss="21.84" rerouteNo="0" devices="vehroute_flow_14_phase1_W_left.0 tripinfo_flow_14_phase1_W_left.0" vType="moto" speedFactor="1.01" vaporized=""/>
    <tripinfo id="flow_5_phase1_S_straight.1" depart="14.00" departLane="S_in_1" departPos="31.93" departSpeed="9.28" departDelay="0.77" arrival="48.00" arrivalLane="N_out_0" arrivalPos="189.60" arrivalSpeed="15.04" duration="34.00" routeLength="368.07" waitingTime="2.00" waitingCount="1" stopTime="0.00" timeLoss="10.50" rerouteNo="0" devices="vehroute_flow_5_phase1_S_straight.1 tripinfo_flow_5_phase1_S_straight.1" vType="moto" speedFactor="1.19" vaporized=""/>
    <tripinfo id="flow_2_phase1_N_left.0" depart="0.00" departLane="N_in_1" departPos="8.27" departSpeed="8.33" departDelay="0.00" arrival="54.00" arrivalLane="E_out_1" arrivalPos="189.60" arrivalSpeed="13.74" duration="54.00" routeLength="390.28" waitingTime="11.00" waitingCount="2" stopTime="0.00" timeLoss="25.03" rerouteNo="0" devices="vehroute_flow_2_phase1_N_left.0 tripinfo_flow_2_phase1_N_left.0" vType="moto" speedFactor="1.02" vaporized=""/>
    <tripinfo id="flow_1_phase1_N_straight.0" depart="0.00" departLane="N_in_0" departPos="8.62" departSpeed="8.51" departDelay="0.00" arrival="56.00" arrivalLane="S_out_0" arrivalPos="189.60" arrivalSpeed="11.55" duration="56.00" routeLength="391.38" waitingTime="12.00" waitingCount="1" stopTime="0.00" timeLoss="22.52" rerouteNo="0" devices="vehroute_flow_1_phase1_N_straight.0 tripinfo_flow_1_phase1_N_straight.0" vType="bus" speedFactor="0.86" vaporized=""/>
    <tripinfo id="flow_1_phase1_N_straight.1" depart="14.00" departLane="N_in_1" departPos="58.36" departSpeed="11.64" departDelay="0.48" arrival="57.00" arrivalLane="S_out_1" arrivalPos="189.60" arrivalSpeed="11.49" duration="43.00" routeLength="341.64" waitingTime="4.00" waitingCount="1" stopTime="0.00" timeLoss="14.78" rerouteNo="0" devices="vehroute_flow_1_phase1_N_straight.1 tripinfo_flow_1_phase1_N_straight.1" vType="moto" speedFactor="0.87" vaporized=""/>
    <tripinfo id="flow_5_phase1_S_straight.2" depart="27.00" departLane="S_in_1" departPos="12.70" departSpeed="12.41" departDelay="0.54" arrival="58.00" arrivalLane="N_out_0" arrivalPos="189.60" arrivalSpeed="13.18" duration="31.00" routeLength="387.30" waitingTime="0.00" waitingCount="0" stopTime="0.00" timeLoss="1.50" rerouteNo="0" devices="vehroute_flow_5_phase1_S_straight.2 tripinfo_flow_5_phase1_S_straight.2" vType="moto" speedFactor="0.96" vaporized=""/>
    <tripinfo id="flow_15_phase1_W_right.1" depart="33.00" departLane="W_in_0" departPos="156.52" departSpeed="7.69" departDelay="0.16" arrival="60.00" arrivalLane="S_out_0" arrivalPos="189.60" arrivalSpeed="14.90" duration="27.00" routeLength="231.71" waitingTime="5.00" waitingCount="1" stopTime="0.00" timeLoss="10.86" rerouteNo="0" devices="vehroute_flow_15_phase1_W_right.1 tripinfo_flow_15_phase1_W_right.1" vType="moto" speedFactor="1.08" vaporized=""/>
    <tripinfo id="flow_2_phase1_N_left.1" depart="33.00" departLane="N_in_0" departPos="136.87" departSpeed="1.25" departDelay="0.32" arrival="61.00" arrivalLane="E_out_1" arrivalPos="189.60" arrivalSpeed="15.46" duration="28.00" routeLength="261.68" waitingTime="0.00" waitingCount="0" stopTime="0.00" timeLoss="9.75" rerouteNo="0" devices="vehroute_flow_2_phase1_N_left.1 tripinfo_flow_2_phase1_N_left.1" vType="moto" speedFactor="1.12" vaporized=""/>
    <tripinfo id="flow_11_phase1_E_right.1" depart="33.00" departLane="E_in_1" departPos="116.63" departSpeed="6.10" departDelay="0.51" arrival="61.00" arrivalLane="N_out_0" arrivalPos="189.60" arrivalSpeed="13.98" duration="28.00" routeLength="271.60" waitingTime="1.00" waitingCount="1" stopTime="0.00" timeLoss="7.88" rerouteNo="0" devices="vehroute_flow_11_phase1_E_right.1 tripinfo_flow_11_phase1_E_right.1" vType="moto" speedFactor="1.04" vaporized=""/>
    <tripinfo id="flow_9_phase1_E_straight.2" depart="26.00" departLane="W_in_1" departPos="52.87" departSpeed="0.38" departDelay="0.25" arrival="65.00" arrivalLane="N_out_1" arrivalPos="189.60" arrivalSpeed="13.56" duration="39.00" routeLength="345.68" waitingTime="2.00" waitingCount="1" stopTime="0.00" timeLoss="12.46" rerouteNo="0" devices="vehroute_flow_9_phase1_E_straight.2 tripinfo_flow_9_phase1_E_straight.2" vType="moto" speedFactor="0.99" vaporized=""/>
    <tripinfo id="flow_3_phase1_N_right.1" depart="35.00" departLane="W_in_1" departPos="175.36" departSpeed="9.25" departDelay="0.82" arrival="65.00" arrivalLane="E_out_1" arrivalPos="189.60" arrivalSpeed="12.05" duration="30.00" routeLength="224.64" waitingTime="5.00" waitingCount="1" stopTime="0.00" timeLoss="10.97" rerouteNo="0" devices="vehroute_flow_3_phase1_N_right.1 tripinfo_flow_3_phase1_N_right.1" vType="moto" speedFactor="0.88" vaporized=""/>
    <tripinfo id="flow_13_phase1_W_straight.3" depart="41.00" departLane="W_in_1" departPos="135.04" departSpeed="4.10" departDelay="0.85" arrival="65.00" arrivalLane="E_out_0" arrivalPos="189.60" arrivalSpeed="13.75" duration="24.00" routeLength="264.96" waitingTime="0.00" waitingCount="0" stopTime="0.00" timeLoss="5.81" rerouteNo="0" devices="vehroute_flow_13_phase1_W_straight.3 tripinfo_flow_13_phase1_W_straight.3" vType="car" speedFactor="1.05" vaporized=""/>
    <tripinfo id="flow_13_phase1_W_straight.2" depart="27.00" departLane="W_in_1" departPos="16.31" departSpeed="12.68" departDelay="0.23" arrival="69.00" arrivalLane="E_out_0" arrivalPos="189.60" arrivalSpeed="13.09" duration="42.00" routeLength="383.69" waitingTime="0.00" waitingCount="0" stopTime="0.00" timeLoss="13.12" rerouteNo="0" devices="vehroute_flow_13_phase1_W_straight.2 tripinfo_flow_13_phase1_W_straight.2" vType="bus" speedFactor="0.97" vaporized=""/>
    <tripinfo id="flow_9_phase1_E_straight.3" depart="39.00" departLane="W_in_0" departPos="56.18" departSpeed="6.79" departDelay="0.37" arrival="73.00" arrivalLane="N_out_1" arrivalPos="189.60" arrivalSpeed="11.60" duration="34.00" routeLength="342.37" waitingTime="0.00" waitingCount="0" stopTime="0.00" timeLoss="4.40" rerouteNo="0" devices="vehroute_flow_9_phase1_E_straight.3 tripinfo_flow_9_phase1_E_straight.3" vType="bus" speedFactor="0.85" vaporized=""/>
    <tripinfo id="flow_5_phase1_S_straight.3" depart="40.00" departLane="S_in_0" departPos="132.62" departSpeed="5.13" departDelay="0.31" arrival="75.00" arrivalLane="N_out_0" arrivalPos="189.60" arrivalSpeed="14.24" duration="35.00" routeLength="267.38" waitingTime="8.00" waitingCount="1" stopTime="0.00" timeLoss="16.50" rerouteNo="0" devices="vehroute_flow_5_phase1_S_straight.3 tripinfo_flow_5_phase1_S_straight.3" vType="moto" speedFactor="1.08" vaporized=""/>
    <tripinfo id="flow_10_phase1_E_left.0" depart="0.00" departLane="E_in_0" departPos="6.15" departSpeed="3.34" departDelay="0.00" arrival="76.00" arrivalLane="S_out_1" arrivalPos="189.60" arrivalSpeed="13.46" duration="76.00" routeLength="392.40" waitingTime="22.00" waitingCount="2" stopTime="0.00" timeLoss="47.07" rerouteNo="0" devices="vehroute_flow_10_phase1_E_left.0 tripinfo_flow_10_phase1_E_left.0" vType="truck" speedFactor="1.02" vaporized=""/>
    <tripinfo id="flow_1_phase1_N_straight.2" depart="28.00" departLane="N_in_0" departPos="34.25" departSpeed="2.67" departDelay="0.97" arrival="76.00" arrivalLane="S_out_0" arrivalPos="189.60" arrivalSpeed="12.17" duration="48.00" routeLength="365.75" waitingTime="12.00" waitingCount="1" stopTime="0.00" timeLoss="19.56" rerouteNo="0" devices="vehroute_flow_1_phase1_N_straight.2 tripinfo_flow_1_phase1_N_straight.2" vType="moto" speedFactor="0.93" vaporized=""/>
    <tripinfo id="flow_1_phase1_N_straight.3" depart="41.00" departLane="N_in_0" departPos="125.48" departSpeed="7.46" departDelay="0.45" arrival="78.00" arrivalLane="S_out_1" arrivalPos="189.60" arrivalSpeed="14.72" duration="37.00" routeLength="274.52" waitingTime="8.00" waitingCount="1" stopTime="0.00" timeLoss="19.07" rerouteNo="0" devices="vehroute_flow_1_phase1_N_straight.3 tripinfo_flow_1_phase1_N_straight.3" vType="moto" speedFactor="1.20" vaporized=""/>
    <tripinfo id="flow_6_phase1_S_left.1" depart="34.00" departLane="S_in_0" departPos="69.24" departSpeed="6.06" departDelay="0.55" arrival="79.00" arrivalLane="W_out_1" arrivalPos="189.60" arrivalSpeed="13.37" duration="45.00" routeLength="329.31" waitingTime="12.00" waitingCount="2" stopTime="0.00" timeLoss="20.82" rerouteNo="0" devices="vehroute_flow_6_phase1_S_left.1 tripinfo_flow_6_phase1_S_left.1" vType="moto" speedFactor="1.05" vaporized=""/>
    <tripinfo id="flow_5_phase1_S_straight.4" depart="53.00" departLane="S_in_0" departPos="91.01" departSpeed="5.01" departDelay="0.08" arrival="81.00" arrivalLane="N_out_0" arrivalPos="189.60" arrivalSpeed="13.33" duration="28.00" routeLength="308.99" waitingTime="0.00" waitingCount="0" stopTime="0.00" timeLoss="4.73" rerouteNo="0" devices="vehroute_flow_5_phase1_S_straight.4 tripinfo_flow_5_phase1_S_straight.4" vType="container" speedFactor="0.97" vaporized=""/>
    <tripinfo id="flow_11_phase1_E_right.2" depart="65.00" departLane="E_in_1" departPos="112.37" departSpeed="10.82" departDelay="0.02" arrival="86.00" arrivalLane="N_out_0" arrivalPos="189.60" arrivalSpeed="14.96" duration="21.00" routeLength="275.86" waitingTime="0.00" waitingCount="0" stopTime="0.00" timeLoss="2.99" rerouteNo="0" devices="vehroute_flow_11_phase1_E_right.2 tripinfo_flow_11_phase1_E_right.2" vType="moto" speedFactor="1.14" vaporized=""/>
    <tripinfo id="flow_13_phase1_W_straight.5" depart="67.00" departLane="W_in_1" departPos="92.42" departSpeed="13.00" departDelay="0.08" arrival="91.00" arrivalLane="E_out_1" arrivalPos="189.60" arrivalSpeed="15.44" duration="24.00" routeLength="307.58" waitingTime="0.00" waitingCount="0" stopTime="0.00" timeLoss="3.88" rerouteNo="0" devices="vehroute_flow_13_phase1_W_straight.5 tripinfo_flow_13_phase1_W_straight.5" vType="moto" speedFactor="1.14" vaporized=""/>
    <tripinfo id="flow_7_phase1_S_right.1" depart="33.00" departLane="N_in_1" departPos="40.26" departSpeed="3.16" departDelay="0.51" arrival="92.00" arrivalLane="N_out_0" arrivalPos="189.60" arrivalSpeed="10.86" duration="59.00" routeLength="343.61" waitingTime="6.00" waitingCount="2" stopTime="0.00" timeLoss="25.30" rerouteNo="0" devices="vehroute_flow_7_phase1_S_right.1 tripinfo_flow_7_phase1_S_right.1" vType="container" speedFactor="0.78" vaporized=""/>
    <tripinfo id="flow_9_phase1_E_straight.4" depart="52.00" departLane="W_in_0" departPos="26.76" departSpeed="9.44" departDelay="0.49" arrival="92.00" arrivalLane="N_out_1" arrivalPos="189.60" arrivalSpeed="12.95" duration="40.00" routeLength="371.79" waitingTime="2.00" waitingCount="1" stopTime="0.00" timeLoss="11.13" rerouteNo="0" devices="vehroute_flow_9_phase1_E_straight.4 tripinfo_flow_9_phase1_E_straight.4" vType="bus" speedFactor="0.95" vaporized=""/>
    <tripinfo id="flow_13_phase1_W_straight.4" depart="54.00" departLane="W_in_0" departPos="128.04" departSpeed="4.72" departDelay="0.46" arrival="94.00" arrivalLane="E_out_0" arrivalPos="189.60" arrivalSpeed="11.96" duration="40.00" routeLength="271.96" waitingTime="6.00" waitingCount="1" stopTime="0.00" timeLoss="17.43" rerouteNo="0" devices="vehroute_flow_13_phase1_W_straight.4 tripinfo_flow_13_phase1_W_straight.4" vType="bus" speedFactor="0.87" vaporized=""/>
    <tripinfo id="flow_12_phase1_E_uturn.1" depart="66.00" departLane="W_in_1" departPos="168.21" departSpeed="5.24" departDelay="0.19" arrival="94.00" arrivalLane="S_out_0" arrivalPos="189.60" arrivalSpeed="12.76" duration="28.00" routeLength="220.02" waitingTime="1.00" waitingCount="1" stopTime="0.00" timeLoss="10.35" rerouteNo="0" devices="vehroute_flow_12_phase1_E_uturn.1 tripinfo_flow_12_phase1_E_uturn.1" vType="moto" speedFactor="0.95" vaporized=""/>
    <tripinfo id="flow_16_phase1_W_uturn.1" depart="67.00" departLane="W_in_0" departPos="87.76" departSpeed="11.32" departDelay="0.80" arrival="96.00" arrivalLane="W_out_1" arrivalPos="189.60" arrivalSpeed="13.80" duration="29.00" routeLength="296.11" waitingTime="0.00" waitingCount="0" stopTime="0.00" timeLoss="7.04" rerouteNo="0" devices="vehroute_flow_16_phase1_W_uturn.1 tripinfo_flow_16_phase1_W_uturn.1" vType="moto" speedFactor="1.04" vaporized=""/>
    <tripinfo id="flow_15_phase1_W_right.2" depart="66.00" departLane="W_in_0" departPos="31.76" departSpeed="11.15" departDelay="0.32" arrival="99.00" arrivalLane="S_out_0" arrivalPos="189.60" arrivalSpeed="11.79" duration="33.00" routeLength="356.47" waitingTime="0.00" waitingCount="0" stopTime="0.00" timeLoss="3.55" rerouteNo="0" devices="vehroute_flow_15_phase1_W_right.2 tripinfo_flow_15_phase1_W_right.2" vType="moto" speedFactor="0.89" vaporized=""/>
    <tripinfo id="flow_7_phase1_S_right.2" depart="65.00" departLane="N_in_0" departPos="125.76" departSpeed="4.92" departDelay="0.01" arrival="102.00" arrivalLane="N_out_1" arrivalPos="189.60" arrivalSpeed="13.71" duration="37.00" routeLength="258.11" waitingTime="8.00" waitingCount="1" stopTime="0.00" timeLoss="17.58" rerouteNo="0" devices="vehroute_flow_7_phase1_S_right.2 tripinfo_flow_7_phase1_S_right.2" vType="moto" speedFactor="1.03" vaporized=""/>
    <tripinfo id="flow_5_phase1_S_straight.5" depart="67.00" departLane="S_in_1" departPos="124.88" departSpeed="0.01" departDelay="0.85" arrival="104.00" arrivalLane="N_out_0" arrivalPos="189.60" arrivalSpeed="13.17" duration="37.00" routeLength="275.12" waitingTime="5.00" waitingCount="1" stopTime="0.00" timeLoss="17.53" rerouteNo="0" devices="vehroute_flow_5_phase1_S_straight.5 tripinfo_flow_5_phase1_S_straight.5" vType="moto" speedFactor="1.03" vaporized=""/>
    <tripinfo id="flow_14_phase1_W_left.1" depart="35.00" departLane="E_in_0" departPos="86.42" departSpeed="5.40" departDelay="0.53" arrival="106.00" arrivalLane="S_out_1" arrivalPos="189.60" arrivalSpeed="12.28" duration="71.00" routeLength="312.13" waitingTime="19.00" waitingCount="3" stopTime="0.00" timeLoss="45.20" rerouteNo="0" devices="vehroute_flow_14_phase1_W_left.1 tripinfo_flow_14_phase1_W_left.1" vType="container" speedFactor="0.91" vaporized=""/>
    <tripinfo id="flow_1_phase1_N_straight.4" depart="55.00" departLane="N_in_1" departPos="29.12" departSpeed="10.80" departDelay="0.94" arrival="106.00" arrivalLane="S_out_0" arrivalPos="189.60" arrivalSpeed="12.47" duration="51.00" routeLength="370.88" waitingTime="9.00" waitingCount="1" stopTime="0.00" timeLoss="21.86" rerouteNo="0" devices="vehroute_flow_1_phase1_N_straight.4 tripinfo_flow_1_phase1_N_straight.4" vType="truck" speedFactor="0.92" vaporized=""/>
    <tripinfo id="flow_2_phase1_N_left.2" depart="66.00" departLane="N_in_1" departPos="121.56" departSpeed="1.57" departDelay="0.64" arrival="109.00" arrivalLane="E_out_1" arrivalPos="189.60" arrivalSpeed="14.62" duration="43.00" routeLength="276.99" waitingTime="10.00" waitingCount="2" stopTime="0.00" timeLoss="23.65" rerouteNo="0" devices="vehroute_flow_2_phase1_N_left.2 tripinfo_flow_2_phase1_N_left.2" vType="emergency" speedFactor="1.10" vaporized=""/>
    <tripinfo id="flow_1_phase1_N_straight.5" depart="68.00" departLane="N_in_1" departPos="39.34" departSpeed="4.17" departDelay="0.42" arrival="109.00" arrivalLane="S_out_0" arrivalPos="189.60" arrivalSpeed="11.56" duration="41.00" routeLength="360.66" waitingTime="2.00" waitingCount="1" stopTime="0.00" timeLoss="11.67" rerouteNo="0" devices="vehroute_flow_1_phase1_N_straight.5 tripinfo_flow_1_phase1_N_straight.5" vType="moto" speedFactor="0.90" vaporized=""/>
    <tripinfo id="flow_1_phase1_N_straight.6" depart="82.00" departLane="N_in_0" departPos="60.83" departSpeed="12.52" departDelay="0.90" arrival="110.00" arrivalLane="S_out_0" arrivalPos="189.60" arrivalSpeed="13.29" duration="28.00" routeLength="339.17" waitingTime="0.00" waitingCount="0" stopTime="0.00" timeLoss="2.94" rerouteNo="0" devices="vehroute_flow_1_phase1_N_straight.6 tripinfo_flow_1_phase1_N_straight.6" vType="car" speedFactor="0.98" vaporized=""/>
    <tripinfo id="flow_3_phase1_N_right.2" depart="69.00" departLane="W_in_0" departPos="61.32" departSpeed="6.85" departDelay="0.63" arrival="115.00" arrivalLane="E_out_0" arrivalPos="189.60" arrivalSpeed="14.97" duration="46.00" routeLength="338.68" waitingTime="9.00" waitingCount="1" stopTime="0.00" timeLoss="23.55" rerouteNo="0" devices="vehroute_flow_3_phase1_N_right.2 tripinfo_flow_3_phase1_N_right.2" vType="moto" speedFactor="1.10" vaporized=""/>
    <tripinfo id="flow_6_phase1_S_left.2" depart="67.00" departLane="S_in_1" departPos="92.22" departSpeed="0.14" departDelay="0.10" arrival="116.00" arrivalLane="W_out_1" arrivalPos="189.60" arrivalSpeed="12.19" duration="49.00" routeLength="306.33" waitingTime="8.00" waitingCount="1" stopTime="0.00" timeLoss="23.69" rerouteNo="0" devices="vehroute_flow_6_phase1_S_left.2 tripinfo_flow_6_phase1_S_left.2" vType="truck" speedFactor="0.89" vaporized=""/>
    <tripinfo id="flow_13_phase1_W_straight.6" depart="81.00" departLane="W_in_0" departPos="43.18" departSpeed="3.07" departDelay="0.70" arrival="118.00" arrivalLane="E_out_0" arrivalPos="189.60" arrivalSpeed="12.69" duration="37.00" routeLength="356.82" waitingTime="0.00" waitingCount="0" stopTime="0.00" timeLoss="10.54" rerouteNo="0" devices="vehroute_flow_13_phase1_W_straight.6 tripinfo_flow_13_phase1_W_straight.6" vType="car" speedFactor="0.98" vaporized=""/>
    <tripinfo id="flow_15_phase1_W_right.3" depart="99.00" departLane="W_in_0" departPos="150.32" departSpeed="6.88" departDelay="0.49" arrival="118.00" arrivalLane="S_out_0" arrivalPos="189.60" arrivalSpeed="15.99" duration="19.00" routeLength="237.91" waitingTime="0.00" waitingCount="0" stopTime="0.00" timeLoss="3.29" rerouteNo="0" devices="vehroute_flow_15_phase1_W_right.3 tripinfo_flow_15_phase1_W_right.3" vType="moto" speedFactor="1.17" vaporized=""/>
    <tripinfo id="flow_9_phase1_E_straight.5" depart="65.00" departLane="W_in_0" departPos="52.57" departSpeed="8.16" departDelay="0.62" arrival="119.00" arrivalLane="N_out_1" arrivalPos="189.60" arrivalSpeed="13.03" duration="54.00" routeLength="345.98" waitingTime="17.00" waitingCount="2" stopTime="0.00" timeLoss="28.09" rerouteNo="0" devices="vehroute_flow_9_phase1_E_straight.5 tripinfo_flow_9_phase1_E_straight.5" vType="moto" speedFactor="1.00" vaporized=""/>
    <tripinfo id="flow_9_phase1_E_straight.6" depart="78.00" departLane="W_in_1" departPos="109.89" departSpeed="2.24" departDelay="0.74" arrival="121.00" arrivalLane="N_out_1" arrivalPos="189.60" arrivalSpeed="13.72" duration="43.00" routeLength="288.66" waitingTime="10.00" waitingCount="2" stopTime="0.00" timeLoss="20.95" rerouteNo="0" devices="vehroute_flow_9_phase1_E_straight.6 tripinfo_flow_9_phase1_E_straight.6" vType="moto" speedFactor="1.02" vaporized=""/>
    <tripinfo id="flow_9_phase1_E_straight.7" depart="91.00" departLane="W_in_1" departPos="88.32" departSpeed="11.93" departDelay="0.86" arrival="122.00" arrivalLane="N_out_1" arrivalPos="189.60" arrivalSpeed="13.23" duration="31.00" routeLength="310.23" waitingTime="0.00" waitingCount="0" stopTime="0.00" timeLoss="7.70" rerouteNo="0" devices="vehroute_flow_9_phase1_E_straight.7 tripinfo_flow_9_phase1_E_straight.7" vType="moto" speedFactor="1.01" vaporized=""/>
    <tripinfo id="flow_1_phase1_N_straight.7" depart="95.00" departLane="N_in_0" departPos="16.04" departSpeed="5.96" departDelay="0.39" arrival="124.00" arrivalLane="S_out_0" arrivalPos="189.60" arrivalSpeed="13.61" duration="29.00" routeLength="383.96" waitingTime="0.00" waitingCount="0" stopTime="0.00" timeLoss="2.92" rerouteNo="0" devices="vehroute_flow_1_phase1_N_straight.7 tripinfo_flow_1_phase1_N_straight.7" vType="moto" speedFactor="1.06" vaporized=""/>
    <tripinfo id="flow_13_phase1_W_straight.7" depart="94.00" departLane="W_in_1" departPos="107.80" departSpeed="10.21" departDelay="0.31" arrival="126.00" arrivalLane="E_out_0" arrivalPos="189.60" arrivalSpeed="10.31" duration="32.00" routeLength="292.20" waitingTime="0.00" waitingCount="0" stopTime="0.00" timeLoss="5.39" rerouteNo="0" devices="vehroute_flow_13_phase1_W_straight.7 tripinfo_flow_13_phase1_W_straight.7" vType="moto" speedFactor="0.80" vaporized=""/>
    <tripinfo id="flow_5_phase1_S_straight.6" depart="80.00" departLane="S_in_1" departPos="21.74" departSpeed="12.05" departDelay="0.62" arrival="130.00" arrivalLane="N_out_0" arrivalPos="189.60" arrivalSpeed="14.19" duration="50.00" routeLength="378.26" waitingTime="13.00" waitingCount="1" stopTime="0.00" timeLoss="24.51" rerouteNo="0" devices="vehroute_flow_5_phase1_S_straight.6 tripinfo_flow_5_phase1_S_straight.6" vType="moto" speedFactor="1.10" vaporized=""/>
    <tripinfo id="flow_5_phase1_S_straight.8" depart="106.00" departLane="S_in_0" departPos="65.74" departSpeed="2.97" departDelay="0.16" arrival="131.00" arrivalLane="N_out_0" arrivalPos="189.60" arrivalSpeed="15.59" duration="25.00" routeLength="334.26" waitingTime="0.00" waitingCount="0" stopTime="0.00" timeLoss="3.38" rerouteNo="0" devices="vehroute_flow_5_phase1_S_straight.8 tripinfo_flow_5_phase1_S_straight.8" vType="emergency" speedFactor="1.14" vaporized=""/>
    <tripinfo id="flow_10_phase1_E_left.1" depart="34.00" departLane="E_in_1" departPos="57.40" departSpeed="0.25" departDelay="0.50" arrival="133.00" arrivalLane="S_out_0" arrivalPos="189.60" arrivalSpeed="10.55" duration="99.00" routeLength="341.15" waitingTime="28.00" waitingCount="5" stopTime="0.00" timeLoss="65.72" rerouteNo="0" devices="vehroute_flow_10_phase1_E_left.1 tripinfo_flow_10_phase1_E_left.1" vType="truck" speedFactor="0.77" vaporized=""/>
    <tripinfo id="flow_6_phase1_S_left.3" depart="101.00" departLane="S_in_0" departPos="36.14" departSpeed="9.22" departDelay="0.64" arrival="134.00" arrivalLane="W_out_1" arrivalPos="189.60" arrivalSpeed="14.09" duration="33.00" routeLength="362.41" waitingTime="0.00" waitingCount="0" stopTime="0.00" timeLoss="8.17" rerouteNo="0" devices="vehroute_flow_6_phase1_S_left.3 tripinfo_flow_6_phase1_S_left.3" vType="car" speedFactor="1.10" vaporized=""/>