<?xml version="1.0" encoding="UTF-8"?>

<!-- generated on 2025-12-08 21:45:31 by Eclipse SUMO sumo Version 1.18.0
<configuration xmlns:xsi="http://www.w3.org/2001/XMLSchema-instance" xsi:noNamespaceSchemaLocation="http://sumo.dlr.de/xsd/sumoConfiguration.xsd">

    <input>
        <net-file value="nets/60p2k/net.net.xml"/>
        <route-files value="nets/60p2k/route_temp_281_124147880884016_33742306.rou.xml"/>
    </input>

    <output>
        <summary-output value="result_ddqn_1.9_0.4/summary_ep_15.xml"/>
        <tripinfo-output value="result_ddqn_1.9_0.4/tripinfo_ep_15.xml"/>
        <vehroute-output value="result_ddqn_1.9_0.4/vehroute_ep_15.xml"/>
    </output>

    <time>
        <begin value="0"/>
    </time>

    <report>
        <verbose value="true"/>
        <no-warnings value="true"/>
        <no-step-log value="true"/>
    </report>

    <traci_server>
        <remote-port value="37165"/>
    </traci_server>

    <gui_only>
        <gui-settings-file value="nets/60p2k/gui-settings.xml"/>
        <quit-on-end value="true"/>
    </gui_only>

</configuration>
-->

<tripinfos xmlns:xsi="http://www.w3.org/2001/XMLSchema-instance" xsi:noNamespaceSchemaLocation="http://sumo.dlr.de/xsd/tripinfo_file.xsd">
    <tripinfo id="flow_6_phase1_S_left.0" depart="0.00" departLane="S_in_1" departPos="166.01" departSpeed="0.74" departDelay="0.00" arrival="25.00" arrivalLane="W_out_1" arrivalPos="189.60" arrivalSpeed="11.97" duration="25.00" routeLength="232.54" waitingTime="0.00" waitingCount="0" stopTime="0.00" timeLoss="4.41" rerouteNo="0" devices="vehroute_flow_6_phase1_S_left.0 tripinfo_flow_6_phase1_S_left.0" vType="moto" speedFactor="0.88" vaporized=""/>
    <tripinfo id="flow_3_phase1_N_right.0" depart="0.00" departLane="S_in_0" departPos="103.38" departSpeed="3.75" departDelay="0.00" arrival="26.00" arrivalLane="S_out_1" arrivalPos="189.60" arrivalSpeed="13.91" duration="26.00" routeLength="280.49" waitingTime="0.00" waitingCount="0" stopTime="0.00" timeLoss="5.98" rerouteNo="0" devices="vehroute_flow_3_phase1_N_right.0 tripinfo_flow_3_phase1_N_right.0" vType="car" speedFactor="1.09" vaporized=""/>
    <tripinfo id="flow_2_phase1_N_left.0" depart="0.00" departLane="N_in_1" departPos="8.27" departSpeed="8.33" departDelay="0.00" arrival="31.00" arrivalLane="E_out_1" arrivalPos="189.60" arrivalSpeed="13.04" duration="31.00" routeLength="390.28" waitingTime="0.00" waitingCount="0" stopTime="0.00" timeLoss="2.49" rerouteNo="0" devices="vehroute_flow_2_phase1_N_left.0 tripinfo_flow_2_phase1_N_left.0" vType="moto" speedFactor="1.02" vaporized=""/>
    <tripinfo id="flow_12_phase1_E_uturn.0" depart="0.00" departLane="E_in_0" departPos="129.89" departSpeed="13.76" departDelay="0.00" arrival="36.00" arrivalLane="E_out_1" arrivalPos="189.60" arrivalSpeed="13.66" duration="36.00" routeLength="253.98" waitingTime="7.00" waitingCount="1" stopTime="0.00" timeLoss="17.31" rerouteNo="0" devices="vehroute_flow_12_phase1_E_uturn.0 tripinfo_flow_12_phase1_E_uturn.0" vType="moto" speedFactor="1.03" vaporized=""/>
    <tripinfo id="flow_4_phase1_N_uturn.0" depart="0.00" departLane="W_in_1" departPos="127.60" departSpeed="0.08" departDelay="0.00" arrival="37.00" arrivalLane="E_out_0" arrivalPos="189.60" arrivalSpeed="12.22" duration="37.00" routeLength="272.40" waitingTime="6.00" waitingCount="1" stopTime="0.00" timeLoss="15.68" rerouteNo="0" devices="vehroute_flow_4_phase1_N_uturn.0 tripinfo_flow_4_phase1_N_uturn.0" vType="car" speedFactor="0.92" vaporized=""/>
    <tripinfo id="flow_8_phase1_S_uturn.0" depart="0.00" departLane="E_in_0" departPos="120.11" departSpeed="4.48" departDelay="0.00" arrival="38.00" arrivalLane="W_out_1" arrivalPos="189.60" arrivalSpeed="14.39" duration="38.00" routeLength="279.89" waitingTime="5.00" waitingCount="1" stopTime="0.00" timeLoss="17.93" rerouteNo="0" devices="vehroute_flow_8_phase1_S_uturn.0 tripinfo_flow_8_phase1_S_uturn.0" vType="moto" speedFactor="1.05" vaporized=""/>
    <tripinfo id="flow_11_phase1_E_right.0" depart="0.00" departLane="E_in_1" departPos="144.95" departSpeed="4.02" departDelay="0.00" arrival="40.00" arrivalLane="N_out_0" arrivalPos="189.60" arrivalSpeed="13.21" duration="40.00" routeLength="243.28" waitingTime="10.00" waitingCount="1" stopTime="0.00" timeLoss="20.60" rerouteNo="0" devices="vehroute_flow_11_phase1_E_right.0 tripinfo_flow_11_phase1_E_right.0" vType="bus" speedFactor="0.96" vaporized=""/>
    <tripinfo id="flow_15_phase1_W_right.0" depart="0.00" departLane="W_in_1" departPos="45.77" departSpeed="1.98" departDelay="0.00" arrival="41.00" arrivalLane="S_out_0" arrivalPos="189.60" arrivalSpeed="10.97" duration="41.00" routeLength="342.46" waitingTime="1.00" waitingCount="1" stopTime="0.00" timeLoss="10.76" rerouteNo="0" devices="vehroute_flow_15_phase1_W_right.0 tripinfo_flow_15_phase1_W_right.0" vType="moto" speedFactor="0.85" vaporized=""/>
    <tripinfo id="flow_14_phase1_W_left.0" depart="0.00" departLane="E_in_1" departPos="50.07" departSpeed="13.54" departDelay="0.00" arrival="42.00" arrivalLane="E_out_1" arrivalPos="189.60" arrivalSpeed="13.81" duration="42.00" routeLength="333.80" waitingTime="5.00" waitingCount="1" stopTime="0.00" timeLoss="16.65" rerouteNo="0" devices="vehroute_flow_14_phase1_W_left.0 tripinfo_flow_14_phase1_W_left.0" vType="moto" speedFactor="1.01" vaporized=""/>
    <tripinfo id="flow_13_phase1_W_straight.0" depart="0.00" departLane="W_in_0" departPos="23.77" departSpeed="1.48" departDelay="0.00" arrival="43.00" arrivalLane="E_out_0" arrivalPos="189.60" arrivalSpeed="10.83" duration="43.00" routeLength="376.23" waitingTime="0.00" waitingCount="0" stopTime="0.00" timeLoss="9.97" rerouteNo="0" devices="vehroute_flow_13_phase1_W_straight.0 tripinfo_flow_13_phase1_W_straight.0" vType="container" speedFactor="0.82" vaporized=""/>
    <tripinfo id="flow_16_phase1_W_uturn.0" depart="0.00" departLane="W_in_1" departPos="135.67" departSpeed="1.28" departDelay="0.00" arrival="44.00" arrivalLane="W_out_1" arrivalPos="189.60" arrivalSpeed="13.28" duration="44.00" routeLength="248.20" waitingTime="10.00" waitingCount="1" stopTime="0.00" timeLoss="25.95" rerouteNo="0" devices="vehroute_flow_16_phase1_W_uturn.0 tripinfo_flow_16_phase1_W_uturn.0" vType="moto" speedFactor="1.04" vaporized=""/>
    <tripinfo id="flow_9_phase1_E_straight.0" depart="0.00" departLane="W_in_0" departPos="168.29" departSpeed="9.83" departDelay="0.00" arrival="46.00" arrivalLane="N_out_1" arrivalPos="189.60" arrivalSpeed="11.85" duration="46.00" routeLength="230.26" waitingTime="12.00" waitingCount="2" stopTime="0.00" timeLoss="26.16" rerouteNo="0" devices="vehroute_flow_9_phase1_E_straight.0 tripinfo_flow_9_phase1_E_straight.0" vType="truck" speedFactor="0.90" vaporized=""/>
    <tripinfo id="flow_10_phase1_E_left.0" depart="0.00" departLane="E_in_0" departPos="44.88" departSpeed="7.69" departDelay="0.00" arrival="48.00" arrivalLane="S_out_1" arrivalPos="189.60" arrivalSpeed="13.38" duration="48.00" routeLength="353.67" waitingTime="4.00" waitingCount="1" stopTime="0.00" timeLoss="21.79" rerouteNo="0" devices="vehroute_flow_10_phase1_E_left.0 tripinfo_flow_10_phase1_E_left.0" vType="truck" speedFactor="1.02" vaporized=""/>
    <tripinfo id="flow_1_phase1_N_straight.1" depart="14.00" departLane="N_in_1" departPos="31.93" departSpeed="7.04" departDelay="0.48" arrival="52.00" arrivalLane="S_out_0" arrivalPos="189.60" arrivalSpeed="11.79" duration="38.00" routeLength="368.07" waitingTime="0.00" waitingCount="0" stopTime="0.00" timeLoss="6.88" rerouteNo="0" devices="vehroute_flow_1_phase1_N_straight.1 tripinfo_flow_1_phase1_N_straight.1" vType="moto" speedFactor="0.87" vaporized=""/>
    <tripinfo id="flow_1_phase1_N_straight.0" depart="0.00" departLane="N_in_0" departPos="8.62" departSpeed="8.51" departDelay="0.00" arrival="56.00" arrivalLane="S_out_0" arrivalPos="189.60" arrivalSpeed="11.76" duration="56.00" routeLength="391.38" waitingTime="12.00" waitingCount="1" stopTime="0.00" timeLoss="22.43" rerouteNo="0" devices="vehroute_flow_1_phase1_N_straight.0 tripinfo_flow_1_phase1_N_straight.0" vType="bus" speedFactor="0.86" vaporized=""/>
    <tripinfo id="flow_11_phase1_E_right.1" depart="33.00" departLane="E_in_0" departPos="73.90" departSpeed="8.86" departDelay="0.51" arrival="60.00" arrivalLane="N_out_0" arrivalPos="189.60" arrivalSpeed="14.02" duration="27.00" routeLength="314.33" waitingTime="0.00" waitingCount="0" stopTime="0.00" timeLoss="4.26" rerouteNo="0" devices="vehroute_flow_11_phase1_E_right.1 tripinfo_flow_11_phase1_E_right.1" vType="moto" speedFactor="1.04" vaporized=""/>
    <tripinfo id="flow_5_phase1_S_straight.0" depart="0.00" departLane="W_in_1" departPos="107.37" departSpeed="7.21" departDelay="0.00" arrival="61.00" arrivalLane="W_out_1" arrivalPos="189.60" arrivalSpeed="15.12" duration="61.00" routeLength="276.50" waitingTime="23.00" waitingCount="2" stopTime="0.00" timeLoss="42.01" rerouteNo="0" devices="vehroute_flow_5_phase1_S_straight.0 tripinfo_flow_5_phase1_S_straight.0" vType="moto" speedFactor="1.15" vaporized=""/>
    <tripinfo id="flow_13_phase1_W_straight.1" depart="14.00" departLane="W_in_1" departPos="52.87" departSpeed="0.43" departDelay="0.62" arrival="61.00" arrivalLane="E_out_0" arrivalPos="189.60" arrivalSpeed="15.14" duration="47.00" routeLength="347.13" waitingTime="12.00" waitingCount="1" stopTime="0.00" timeLoss="24.31" rerouteNo="0" devices="vehroute_flow_13_phase1_W_straight.1 tripinfo_flow_13_phase1_W_straight.1" vType="car" speedFactor="1.12" vaporized=""/>
    <tripinfo id="flow_5_phase1_S_straight.1" depart="14.00" departLane="W_in_1" departPos="121.65" departSpeed="2.93" departDelay="0.77" arrival="62.00" arrivalLane="W_out_1" arrivalPos="189.60" arrivalSpeed="15.35" duration="48.00" routeLength="262.22" waitingTime="14.00" waitingCount="1" stopTime="0.00" timeLoss="30.70" rerouteNo="0" devices="vehroute_flow_5_phase1_S_straight.1 tripinfo_flow_5_phase1_S_straight.1" vType="moto" speedFactor="1.19" vaporized=""/>
    <tripinfo id="flow_15_phase1_W_right.1" depart="33.00" departLane="W_in_1" departPos="79.10" departSpeed="12.16" departDelay="0.16" arrival="62.00" arrivalLane="S_out_0" arrivalPos="189.60" arrivalSpeed="14.30" duration="29.00" routeLength="309.13" waitingTime="1.00" waitingCount="1" stopTime="0.00" timeLoss="7.89" rerouteNo="0" devices="vehroute_flow_15_phase1_W_right.1 tripinfo_flow_15_phase1_W_right.1" vType="moto" speedFactor="1.08" vaporized=""/>
    <tripinfo id="flow_9_phase1_E_straight.1" depart="13.00" departLane="W_in_1" departPos="58.36" departSpeed="11.07" departDelay="0.12" arrival="64.00" arrivalLane="N_out_1" arrivalPos="189.60" arrivalSpeed="15.44" duration="51.00" routeLength="340.19" waitingTime="13.00" waitingCount="1" stopTime="0.00" timeLoss="28.24" rerouteNo="0" devices="vehroute_flow_9_phase1_E_straight.1 tripinfo_flow_9_phase1_E_straight.1" vType="moto" speedFactor="1.16" vaporized=""/>
    <tripinfo id="flow_7_phase1_S_right.0" depart="0.00" departLane="E_in_0" departPos="8.76" departSpeed="8.07" departDelay="0.00" arrival="70.00" arrivalLane="E_out_1" arrivalPos="189.60" arrivalSpeed="11.51" duration="70.00" routeLength="375.11" waitingTime="12.00" waitingCount="2" stopTime="0.00" timeLoss="36.50" rerouteNo="0" devices="vehroute_flow_7_phase1_S_right.0 tripinfo_flow_7_phase1_S_right.0" vType="container" speedFactor="0.85" vaporized=""/>
    <tripinfo id="flow_13_phase1_W_straight.2" depart="27.00" departLane="W_in_1" departPos="107.53" departSpeed="1.15" departDelay="0.23" arrival="70.00" arrivalLane="E_out_0" arrivalPos="189.60" arrivalSpeed="13.04" duration="43.00" routeLength="292.47" waitingTime="6.00" waitingCount="1" stopTime="0.00" timeLoss="21.13" rerouteNo="0" devices="vehroute_flow_13_phase1_W_straight.2 tripinfo_flow_13_phase1_W_straight.2" vType="bus" speedFactor="0.97" vaporized=""/>
    <tripinfo id="flow_1_phase1_N_straight.2" depart="28.00" departLane="N_in_0" departPos="8.88" departSpeed="2.33" departDelay="0.97" arrival="76.00" arrivalLane="S_out_0" arrivalPos="189.60" arrivalSpeed="11.81" duration="48.00" routeLength="391.12" waitingTime="9.00" waitingCount="1" stopTime="0.00" timeLoss="17.55" rerouteNo="0" devices="vehroute_flow_1_phase1_N_straight.2 tripinfo_flow_1_phase1_N_straight.2" vType="moto" speedFactor="0.93" vaporized=""/>
    <tripinfo id="flow_2_phase1_N_left.1" depart="33.00" departLane="N_in_1" departPos="66.71" departSpeed="11.27" departDelay="0.32" arrival="77.00" arrivalLane="E_out_1" arrivalPos="189.60" arrivalSpeed="15.38" duration="44.00" routeLength="331.84" waitingTime="14.00" waitingCount="2" stopTime="0.00" timeLoss="21.92" rerouteNo="0" devices="vehroute_flow_2_phase1_N_left.1 tripinfo_flow_2_phase1_N_left.1" vType="moto" speedFactor="1.12" vaporized=""/>
    <tripinfo id="flow_1_phase1_N_straight.4" depart="55.00" departLane="N_in_0" departPos="125.76" departSpeed="4.40" departDelay="0.94" arrival="80.00" arrivalLane="S_out_0" arrivalPos="189.60" arrivalSpeed="12.35" duration="25.00" routeLength="274.24" waitingTime="0.00" waitingCount="0" stopTime="0.00" timeLoss="3.37" rerouteNo="0" devices="vehroute_flow_1_phase1_N_straight.4 tripinfo_flow_1_phase1_N_straight.4" vType="truck" speedFactor="0.92" vaporized=""/>
    <tripinfo id="flow_10_phase1_E_left.1" depart="34.00" departLane="E_in_0" departPos="166.00" departSpeed="1.12" departDelay="0.50" arrival="81.00" arrivalLane="S_out_0" arrivalPos="189.60" arrivalSpeed="10.36" duration="47.00" routeLength="232.55" waitingTime="7.00" waitingCount="1" stopTime="0.00" timeLoss="23.33" rerouteNo="0" devices="vehroute_flow_10_phase1_E_left.1 tripinfo_flow_10_phase1_E_left.1" vType="truck" speedFactor="0.77" vaporized=""/>
    <tripinfo id="flow_1_phase1_N_straight.3" depart="41.00" departLane="N_in_0" departPos="125.48" departSpeed="7.46" departDelay="0.45" arrival="82.00" arrivalLane="S_out_1" arrivalPos="189.60" arrivalSpeed="14.46" duration="41.00" routeLength="274.52" waitingTime="8.00" waitingCount="1" stopTime="0.00" timeLoss="23.55" rerouteNo="0" devices="vehroute_flow_1_phase1_N_straight.3 tripinfo_flow_1_phase1_N_straight.3" vType="moto" speedFactor="1.20" vaporized=""/>
    <tripinfo id="flow_6_phase1_S_left.1" depart="34.00" departLane="S_in_0" departPos="4.52" departSpeed="14.19" departDelay="0.55" arrival="86.00" arrivalLane="W_out_1" arrivalPos="189.60" arrivalSpeed="13.96" duration="52.00" routeLength="394.03" waitingTime="13.00" waitingCount="2" stopTime="0.00" timeLoss="23.61" rerouteNo="0" devices="vehroute_flow_6_phase1_S_left.1 tripinfo_flow_6_phase1_S_left.1" vType="moto" speedFactor="1.05" vaporized=""/>
    <tripinfo id="flow_3_phase1_N_right.1" depart="35.00" departLane="S_in_0" departPos="93.41" departSpeed="11.32" departDelay="0.82" arrival="86.00" arrivalLane="S_out_1" arrivalPos="189.60" arrivalSpeed="11.18" duration="51.00" routeLength="290.46" waitingTime="17.00" waitingCount="2" stopTime="0.00" timeLoss="25.96" rerouteNo="0" devices="vehroute_flow_3_phase1_N_right.1 tripinfo_flow_3_phase1_N_right.1" vType="moto" speedFactor="0.88" vaporized=""/>
    <tripinfo id="flow_2_phase1_N_left.2" depart="66.00" departLane="N_in_0" departPos="104.14" departSpeed="14.43" departDelay="0.64" arrival="88.00" arrivalLane="E_out_1" arrivalPos="189.60" arrivalSpeed="14.40" duration="22.00" routeLength="294.41" waitingTime="0.00" waitingCount="0" stopTime="0.00" timeLoss="2.23" rerouteNo="0" devices="vehroute_flow_2_phase1_N_left.2 tripinfo_flow_2_phase1_N_left.2" vType="emergency" speedFactor="1.10" vaporized=""/>
    <tripinfo id="flow_6_phase1_S_left.2" depart="67.00" departLane="S_in_1" departPos="155.35" departSpeed="10.56" departDelay="0.10" arrival="93.00" arrivalLane="W_out_1" arrivalPos="189.60" arrivalSpeed="11.67" duration="26.00" routeLength="243.20" waitingTime="0.00" waitingCount="0" stopTime="0.00" timeLoss="4.99" rerouteNo="0" devices="vehroute_flow_6_phase1_S_left.2 tripinfo_flow_6_phase1_S_left.2" vType="truck" speedFactor="0.89" vaporized=""/>
    <tripinfo id="flow_11_phase1_E_right.2" depart="65.00" departLane="E_in_1" departPos="121.56" departSpeed="1.63" departDelay="0.02" arrival="96.00" arrivalLane="N_out_0" arrivalPos="189.60" arrivalSpeed="14.94" duration="31.00" routeLength="266.67" waitingTime="3.00" waitingCount="1" stopTime="0.00" timeLoss="13.07" rerouteNo="0" devices="vehroute_flow_11_phase1_E_right.2 tripinfo_flow_11_phase1_E_right.2" vType="moto" speedFactor="1.14" vaporized=""/>
    <tripinfo id="flow_5_phase1_S_straight.2" depart="27.00" departLane="W_in_1" departPos="59.51" departSpeed="13.27" departDelay="0.54" arrival="98.00" arrivalLane="W_out_1" arrivalPos="189.60" arrivalSpeed="12.83" duration="71.00" routeLength="324.36" waitingTime="28.00" waitingCount="2" stopTime="0.00" timeLoss="45.41" rerouteNo="0" devices="vehroute_flow_5_phase1_S_straight.2 tripinfo_flow_5_phase1_S_straight.2" vType="moto" speedFactor="0.96" vaporized=""/>
    <tripinfo id="flow_9_phase1_E_straight.2" depart="26.00" departLane="W_in_1" departPos="12.70" departSpeed="12.82" departDelay="0.25" arrival="100.00" arrivalLane="N_out_1" arrivalPos="189.60" arrivalSpeed="13.21" duration="74.00" routeLength="385.85" waitingTime="29.00" waitingCount="3" stopTime="0.00" timeLoss="45.28" rerouteNo="0" devices="vehroute_flow_9_phase1_E_straight.2 tripinfo_flow_9_phase1_E_straight.2" vType="moto" speedFactor="0.99" vaporized=""/>
    <tripinfo id="flow_5_phase1_S_straight.3" depart="40.00" departLane="W_in_0" departPos="132.62" departSpeed="5.13" departDelay="0.31" arrival="100.00" arrivalLane="W_out_1" arrivalPos="189.60" arrivalSpeed="14.12" duration="60.00" routeLength="251.25" waitingTime="25.00" waitingCount="2" stopTime="0.00" timeLoss="42.35" rerouteNo="0" devices="vehroute_flow_5_phase1_S_straight.3 tripinfo_flow_5_phase1_S_straight.3" vType="moto" speedFactor="1.08" vaporized=""/>
    <tripinfo id="flow_7_phase1_S_right.1" depart="33.00" departLane="E_in_1" departPos="128.68" departSpeed="2.32" departDelay="0.51" arrival="106.00" arrivalLane="E_out_0" arrivalPos="189.60" arrivalSpeed="10.41" duration="73.00" routeLength="255.19" waitingTime="21.00" waitingCount="2" stopTime="0.00" timeLoss="48.10" rerouteNo="0" devices="vehroute_flow_7_phase1_S_right.1 tripinfo_flow_7_phase1_S_right.1" vType="container" speedFactor="0.78" vaporized=""/>
    <tripinfo id="flow_14_phase1_W_left.1" depart="35.00" departLane="E_in_0" departPos="86.42" departSpeed="8.04" departDelay="0.53" arrival="112.00" arrivalLane="E_out_1" arrivalPos="189.60" arrivalSpeed="12.33" duration="77.00" routeLength="297.45" waitingTime="19.00" waitingCount="2" stopTime="0.00" timeLoss="52.32" rerouteNo="0" devices="vehroute_flow_14_phase1_W_left.1 tripinfo_flow_14_phase1_W_left.1" vType="container" speedFactor="0.91" vaporized=""/>
    <tripinfo id="flow_9_phase1_E_straight.3" depart="39.00" departLane="W_in_0" departPos="56.18" departSpeed="6.79" departDelay="0.37" arrival="112.00" arrivalLane="N_out_1" arrivalPos="189.60" arrivalSpeed="11.82" duration="73.00" routeLength="342.37" waitingTime="22.00" waitingCount="1" stopTime="0.00" timeLoss="43.05" rerouteNo="0" devices="vehroute_flow_9_phase1_E_straight.3 tripinfo_flow_9_phase1_E_straight.3" vType="bus" speedFactor="0.85" vaporized=""/>
    <tripinfo id="flow_1_phase1_N_straight.6" depart="82.00" departLane="N_in_1" departPos="41.83" departSpeed="12.81" departDelay="0.90" arrival="113.00" arrivalLane="S_out_1" arrivalPos="189.60" arrivalSpeed="13.20" duration="31.00" routeLength="358.17" waitingTime="0.00" waitingCount="0" stopTime="0.00" timeLoss="4.00" rerouteNo="0" devices="vehroute_flow_1_phase1_N_straight.6 tripinfo_flow_1_phase1_N_straight.6" vType="car" speedFactor="0.98" vaporized=""/>
    <tripinfo id="flow_1_phase1_N_straight.5" depart="68.00" departLane="N_in_1" departPos="84.30" departSpeed="9.07" departDelay="0.42" arrival="114.00" arrivalLane="S_out_0" arrivalPos="189.60" arrivalSpeed="11.49" duration="46.00" routeLength="315.70" waitingTime="12.00" waitingCount="1" stopTime="0.00" timeLoss="20.13" rerouteNo="0" devices="vehroute_flow_1_phase1_N_straight.5 tripinfo_flow_1_phase1_N_straight.5" vType="moto" speedFactor="0.90" vaporized=""/>
    <tripinfo id="flow_3_phase1_N_right.2" depart="69.00" departLane="S_in_1" departPos="29.88" departSpeed="12.31" departDelay="0.63" arrival="120.00" arrivalLane="S_out_1" arrivalPos="189.60" arrivalSpeed="15.06" duration="51.00" routeLength="353.99" waitingTime="17.00" waitingCount="2" stopTime="0.00" timeLoss="26.38" rerouteNo="0" devices="vehroute_flow_3_phase1_N_right.2 tripinfo_flow_3_phase1_N_right.2" vType="moto" speedFactor="1.10" vaporized=""/>
    <tripinfo id="flow_13_phase1_W_straight.3" depart="41.00" departLane="W_in_1" departPos="23.57" departSpeed="4.10" departDelay="0.85" arrival="124.00" arrivalLane="E_out_0" arrivalPos="189.60" arrivalSpeed="14.54" duration="83.00" routeLength="376.43" waitingTime="30.00" waitingCount="2" stopTime="0.00" timeLoss="56.60" rerouteNo="0" devices="vehroute_flow_13_phase1_W_straight.3 tripinfo_flow_13_phase1_W_straight.3" vType="car" speedFactor="1.05" vaporized=""/>
    <tripinfo id="flow_12_phase1_E_uturn.1" depart="66.00" departLane="E_in_1" departPos="151.29" departSpeed="2.22" departDelay="0.19" arrival="125.00" arrivalLane="E_out_1" arrivalPos="189.60" arrivalSpeed="12.09" duration="59.00" routeLength="232.58" waitingTime="20.00" waitingCount="2" stopTime="0.00" timeLoss="39.99" rerouteNo="0" devices="vehroute_flow_12_phase1_E_uturn.1 tripinfo_flow_12_phase1_E_uturn.1" vType="moto" speedFactor="0.95" vaporized=""/>
    <tripinfo id="flow_8_phase1_S_uturn.1" depart="66.00" departLane="E_in_1" departPos="91.52" departSpeed="12.81" departDelay="0.07" arrival="129.00" arrivalLane="W_out_0" arrivalPos="189.60" arrivalSpeed="12.65" duration="63.00" routeLength="308.48" waitingTime="20.00" waitingCount="2" stopTime="0.00" timeLoss="38.75" rerouteNo="0" devices="vehroute_flow_8_phase1_S_uturn.1 tripinfo_flow_8_phase1_S_uturn.1" vType="truck" speedFactor="0.94" vaporized=""/>
    <tripinfo id="flow_13_phase1_W_straight.5" depart="67.00" departLane="W_in_0" departPos="63.10" departSpeed="12.44" departDelay="0.08" arrival="130.00" arrivalLane="E_out_1" arrivalPos="189.60" arrivalSpeed="14.91" duration="63.00" routeLength="336.90" waitingTime="18.00" waitingCount="3" stopTime="0.00" timeLoss="41.06" rerouteNo="0" devices="vehroute_flow_13_phase1_W_straight.5 tripinfo_flow_13_phase1_W_straight.5" vType="moto" speedFactor="1.14" vaporized=""/>
    <tripinfo id="flow_13_phase1_W_straight.4" depart="54.00" departLane="W_in_0" departPos="29.12" departSpeed="8.16" departDelay="0.46" arrival="131.00" arrivalLane="E_out_0" arrivalPos="189.60" arrivalSpeed="11.66" duration="77.00" routeLength="370.88" waitingTime="27.00" waitingCount="3" stopTime="0.00" timeLoss="45.77" rerouteNo="0" devices="vehroute_flow_13_phase1_W_straight.4 tripinfo_flow_13_phase1_W_straight.4" vType="bus" speedFactor="0.87" vaporized=""/>
    <tripinfo id="flow_11_phase1_E_right.3" depart="98.00" departLane="E_in_1" departPos="74.79" departSpeed="2.21" departDelay="0.53" arrival="132.00" arrivalLane="N_out_0" arrivalPos="189.60" arrivalSpeed="10.37" duration="34.00" routeLength="313.44" waitingTime="0.00" waitingCount="0" stopTime="0.00" timeLoss="5.35" rerouteNo="0" devices="vehroute_flow_11_phase1_E_right.3 tripinfo_flow_11_phase1_E_right.3" vType="moto" speedFactor="0.83" vaporized=""/>
    <tripinfo id="flow_7_phase1_S_right.2" depart="65.00" departLane="E_in_0" departPos="52.57" departSpeed="8.42" departDelay="0.01" arrival="134.00" arrivalLane="E_out_1" arrivalPos="189.60" arrivalSpeed="13.20" duration="69.00" routeLength="331.30" waitingTime="18.00" waitingCount="3" stopTime="0.00" timeLoss="44.73" rerouteNo="0" devices="vehroute_flow_7_phase1_S_right.2 tripinfo_flow_7_phase1_S_right.2" vType="moto" speedFactor="1.03" vaporized=""/>
    <tripinfo id="flow_15_phase1_W_right.2" depart="66.00" departLane="W_in_0" departPos="0.16" departSpeed="4.18" departDelay="0.32" arrival="134.00" arrivalLane="S_out_0" arrivalPos="189.60" arrivalSpeed="11.47" duration="68.00" routeLength="388.07" waitingTime="9.00" waitingCount="3" stopTime="0.00" timeLoss="35.99" rerouteNo="0" devices="vehroute_flow_15_phase1_W_right.2 tripinfo_flow_15_phase1_W_right.2" vType="moto" speedFactor="0.89" vaporized=""/>
    <tripinfo id="flow_10_phase1_E_left.2" depart="67.00" departLane="E_in_0" departPos="92.42" departSpeed="14.78" departDelay="0.00" arrival="134.00" arrivalLane="S_out_1" arrivalPos="189.60" arrivalSpeed="14.58" duration="67.00" routeLength="306.13" waitingTime="27.00" waitingCount="3" stopTime="0.00" timeLoss="45.32" rerouteNo="0" devices="vehroute_flow_10_phase1_E_left.2 tripinfo_flow_10_phase1_E_left.2" vType="moto" speedFactor="1.07" vaporized=""/>
    <tripinfo id="flow_9_phase1_E_straight.4" depart="52.00" departLane="W_in_0" departPos="167.23" departSpeed="1.87" departDelay="0.49" arrival="136.00" arrivalLane="N_out_1" arrivalPos="189.60" arrivalSpeed="13.18" duration="84.00" routeLength="231.32" waitingTime="40.00" waitingCount="5" stopTime="0.00" timeLoss="65.79" rerouteNo="0" devices="vehroute_flow_9_phase1_E_straight.4 tripinfo_flow_9_phase1_E_straight.4" vType="bus" speedFactor="0.95" vaporized=""/>
    <tripinfo id="flow_1_phase1_N_straight.7" depart="95.00" departLane="N_in_1" departPos="16.13" departSpeed="8.69" departDelay="0.39" arrival="136.00" arrivalLane="S_out_0" arrivalPos="189.60" arrivalSpeed="14.18" duration="41.00" routeLength="383.87" waitingTime="8.00" waitingCount="1" stopTime="0.00" timeLoss="15.00" rerouteNo="0" devices="vehroute_flow_1_phase1_N_straight.7 tripinfo_flow_1_phase1_N_straight.7" vType="moto" speedFactor="1.06" vaporized=""/>
    <tripinfo id="flow_1_phase1_N_straight.8" depart="109.00" departLane="N_in_1" departPos="150.73" departSpeed="0.53" departDelay="0.87" arrival="139.00" arrivalLane="S_out_1" arrivalPos="189.60" arrivalSpeed="13.24" duration="30.00" routeLength="249.27" waitingTime="1.00" waitingCount="1" stopTime="0.00" timeLoss="10.99" rerouteNo="0" devices="vehroute_flow_1_phase1_N_straight.8 tripinfo_flow_1_phase1_N_straight.8" vType="moto" speedFactor="0.97" vaporized=""/>
    <tripinfo id="flow_2_phase1_N_left.3" depart="99.00" departLane="N_in_1" departPos="109.81" departSpeed="6.52" departDelay="0.96" arrival="140.00" arrivalLane="E_out_1" arrivalPos="189.60" arrivalSpeed="11.49" duration="41.00" routeLength="288.74" waitingTime="9.00" waitingCount="1" stopTime="0.00" timeLoss="16.08" rerouteNo="0" devices="vehroute_flow_2_phase1_N_left.3 tripinfo_flow_2_phase1_N_left.3" vType="moto" speedFactor="0.89" vaporized=""/>
    <tripinfo id="flow_6_phase1_S_left.3" depart="101.00" departLane="S_in_0" departPos="35.64" departSpeed="3.52" departDelay="0.64" arrival="143.00" arrivalLane="W_out_1" arrivalPos="189.60" arrivalSpeed="14.71" duration="42.00" routeLength="362.91" waitingTime="7.00" waitingCount="2" stopTime="0.00" timeLoss="17.27" rerouteNo="0" devices="vehroute_flow_6_phase1_S_left.3 tripinfo_flow_6_phase1_S_left.3" vType="car" speedFactor="1.10" vaporized=""/>
    <tripinfo id="flow_3_phase1_N_right.3" depart="103.00" departLane="S_in_0" departPos="157.03" departSpeed="10.17" departDelay="0.45" arrival="143.00" arrivalLane="S_out_1" arrivalPos="189.60" arrivalSpeed="12.26" duration="40.00" routeLength="226.84" waitingTime="15.00" waitingCount="2" stopTime="0.00" timeLoss="21.92" rerouteNo="0" devices="vehroute_flow_3_phase1_N_right.3 tripinfo_flow_3_phase1_N_right.3" vType="moto" speedFactor="0.96" vaporized=""/>
    <tripinfo id="flow_4_phase1_N_uturn.1" depart="67.00" departLane="W_in_0" departPos="2.21" departSpeed="2.08" departDelay="0.96" arrival="151.00" arrivalLane="E_out_0" arrivalPos="189.60" arrivalSpeed="11.79" duration="84.00" routeLength="397.79" waitingTime="19.00" waitingCount="3" stopTime="0.00" timeLoss="52.99" rerouteNo="0" devices="vehroute_flow_4_phase1_N_uturn.1 tripinfo_flow_4_phase1_N_uturn.1" vType="moto" speedFactor="0.94" vaporized=""/>
    <tripinfo id="flow_15_phase1_W_right.3" depart="99.00" departLane="W_in_0" departPos="42.08" departSpeed="8.73" departDelay="0.49" arrival="152.00" arrivalLane="S_out_0" arrivalPos="189.60" arrivalSpeed="14.72" duration="53.00" routeLength="346.15" waitingTime="11.00" waitingCount="1" stopTime="0.00" timeLoss="30.08" rerouteNo="0" devices="vehroute_flow_15_phase1_W_right.3 tripinfo_flow_15_phase1_W_right.3" vType="moto" speedFactor="1.17" vaporized=""/>
    <tripinfo id="flow_13_phase1_W_straight.6" depart="81.00" departLane="W_in_1" departPos="36.12" departSpeed="11.54" departDelay="0.70" arrival="153.00" arrivalLane="E_out_0" arrivalPos="189.60" arrivalSpeed="13.11" duration="72.00" routeLength="363.88" waitingTime="13.00" waitingCount="2" stopTime="0.00" timeLoss="44.39" rerouteNo="0" devices="vehroute_flow_13_phase1_W_straight.6 tripinfo_flow_13_phase1_W_straight.6" vType="car" speedFactor="0.98" vaporized=""/>
    <tripinfo id="flow_13_phase1_W_straight.7" depart="94.00" departLane="W_in_1" departPos="86.40" departSpeed="8.24" departDelay="0.31" arrival="159.00" arrivalLane="E_out_0" arrivalPos="189.60" arrivalSpeed="10.14" duration="65.00" routeLength="313.60" waitingTime="11.00" waitingCount="2" stopTime="0.00" timeLoss="36.59" rerouteNo="0" devices="vehroute_flow_13_phase1_W_straight.7 tripinfo_flow_13_phase1_W_straight.7" vType="moto" speedFactor="0.80" vaporized=""/>
    <tripinfo id="flow_14_phase1_W_left.2" depart="69.00" departLane="E_in_0" departPos="21.74" departSpeed="1.62" departDelay="0.06" arrival="161.00" arrivalLane="E_out_1" arrivalPos="189.60" arrivalSpeed="12.15" duration="92.00" routeLength="362.13" waitingTime="30.00" waitingCount="5" stopTime="0.00" timeLoss="61.11" rerouteNo="0" devices="vehroute_flow_14_phase1_W_left.2 tripinfo_flow_14_phase1_W_left.2" vType="car" speedFactor="0.90" vaporized=""/>