<?xml version="1.0" encoding="UTF-8"?>

<!-- generated on 2025-12-08 21:46:53 by Eclipse SUMO sumo Version 1.18.0
<configuration xmlns:xsi="http://www.w3.org/2001/XMLSchema-instance" xsi:noNamespaceSchemaLocation="http://sumo.dlr.de/xsd/sumoConfiguration.xsd">

    <input>
        <net-file value="nets/60p2k/net.net.xml"/>
        <route-files value="nets/60p2k/route_temp_281_124147880884016_33742306.rou.xml"/>
    </input>

    <output>
        <summary-output value="result_ddqn_1.9_0.4/summary_ep_18.xml"/>
        <tripinfo-output value="result_ddqn_1.9_0.4/tripinfo_ep_18.xml"/>
        <vehroute-output value="result_ddqn_1.9_0.4/vehroute_ep_18.xml"/>
    </output>

    <time>
        <begin value="0"/>
    </time>

    <report>
        <verbose value="true"/>
        <no-warnings value="true"/>
        <no-step-log value="true"/>
    </report>

    <traci_server>
        <remote-port value="54629"/>
    </traci_server>

    <gui_only>
        <gui-settings-file value="nets/60p2k/gui-settings.xml"/>
        <quit-on-end value="true"/>
    </gui_only>

</configuration>
-->

<tripinfos xmlns:xsi="http://www.w3.org/2001/XMLSchema-instance" xsi:noNamespaceSchemaLocation="http://sumo.dlr.de/xsd/tripinfo_file.xsd">
    <tripinfo id="flow_5_phase1_S_straight.0" depart="0.00" departLane="S_in_1" departPos="107.37" departSpeed="7.21" departDelay="0.00" arrival="21.00" arrivalLane="N_out_1" arrivalPos="189.60" arrivalSpeed="15.04" duration="21.00" routeLength="292.63" waitingTime="0.00" waitingCount="0" stopTime="0.00" timeLoss="2.12" rerouteNo="0" devices="vehroute_flow_5_phase1_S_straight.0 tripinfo_flow_5_phase1_S_straight.0" vType="moto" speedFactor="1.15" vaporized=""/>
    <tripinfo id="flow_3_phase1_N_right.0" depart="0.00" departLane="N_in_0" departPos="103.38" departSpeed="3.75" departDelay="0.00" arrival="24.00" arrivalLane="W_out_0" arrivalPos="189.60" arrivalSpeed="14.93" duration="24.00" routeLength="284.85" waitingTime="0.00" waitingCount="0" stopTime="0.00" timeLoss="4.31" rerouteNo="0" devices="vehroute_flow_3_phase1_N_right.0 tripinfo_flow_3_phase1_N_right.0" vType="car" speedFactor="1.09" vaporized=""/>
    <tripinfo id="flow_8_phase1_S_uturn.0" depart="0.00" departLane="S_in_0" departPos="120.11" departSpeed="4.48" departDelay="0.00" arrival="24.00" arrivalLane="E_out_0" arrivalPos="189.60" arrivalSpeed="14.21" duration="24.00" routeLength="268.12" waitingTime="0.00" waitingCount="0" stopTime="0.00" timeLoss="4.43" rerouteNo="0" devices="vehroute_flow_8_phase1_S_uturn.0 tripinfo_flow_8_phase1_S_uturn.0" vType="moto" speedFactor="1.05" vaporized=""/>
    <tripinfo id="flow_6_phase1_S_left.0" depart="0.00" departLane="S_in_1" departPos="166.01" departSpeed="0.74" departDelay="0.00" arrival="25.00" arrivalLane="W_out_1" arrivalPos="189.60" arrivalSpeed="11.57" duration="25.00" routeLength="232.54" waitingTime="0.00" waitingCount="0" stopTime="0.00" timeLoss="4.29" rerouteNo="0" devices="vehroute_flow_6_phase1_S_left.0 tripinfo_flow_6_phase1_S_left.0" vType="moto" speedFactor="0.88" vaporized=""/>
    <tripinfo id="flow_10_phase1_E_left.0" depart="0.00" departLane="N_in_0" departPos="44.88" departSpeed="7.69" departDelay="0.00" arrival="33.00" arrivalLane="N_out_1" arrivalPos="189.60" arrivalSpeed="14.05" duration="33.00" routeLength="338.99" waitingTime="0.00" waitingCount="0" stopTime="0.00" timeLoss="8.31" rerouteNo="0" devices="vehroute_flow_10_phase1_E_left.0 tripinfo_flow_10_phase1_E_left.0" vType="truck" speedFactor="1.02" vaporized=""/>
    <tripinfo id="flow_16_phase1_W_uturn.0" depart="0.00" departLane="W_in_0" departPos="126.68" departSpeed="11.71" departDelay="0.00" arrival="36.00" arrivalLane="W_out_1" arrivalPos="189.60" arrivalSpeed="14.32" duration="36.00" routeLength="257.19" waitingTime="8.00" waitingCount="1" stopTime="0.00" timeLoss="16.35" rerouteNo="0" devices="vehroute_flow_16_phase1_W_uturn.0 tripinfo_flow_16_phase1_W_uturn.0" vType="moto" speedFactor="1.04" vaporized=""/>
    <tripinfo id="flow_14_phase1_W_left.0" depart="0.00" departLane="W_in_1" departPos="182.88" departSpeed="5.61" departDelay="0.00" arrival="37.00" arrivalLane="E_out_0" arrivalPos="189.60" arrivalSpeed="13.99" duration="37.00" routeLength="217.12" waitingTime="14.00" waitingCount="1" stopTime="0.00" timeLoss="20.72" rerouteNo="0" devices="vehroute_flow_14_phase1_W_left.0 tripinfo_flow_14_phase1_W_left.0" vType="moto" speedFactor="1.01" vaporized=""/>
    <tripinfo id="flow_4_phase1_N_uturn.0" depart="0.00" departLane="W_in_1" departPos="127.60" departSpeed="0.08" departDelay="0.00" arrival="39.00" arrivalLane="E_out_0" arrivalPos="189.60" arrivalSpeed="12.14" duration="39.00" routeLength="272.40" waitingTime="8.00" waitingCount="1" stopTime="0.00" timeLoss="17.37" rerouteNo="0" devices="vehroute_flow_4_phase1_N_uturn.0 tripinfo_flow_4_phase1_N_uturn.0" vType="car" speedFactor="0.92" vaporized=""/>
    <tripinfo id="flow_12_phase1_E_uturn.0" depart="0.00" departLane="E_in_0" departPos="5.65" departSpeed="13.76" departDelay="0.00" arrival="39.00" arrivalLane="N_out_0" arrivalPos="189.60" arrivalSpeed="13.42" duration="39.00" routeLength="382.58" waitingTime="2.00" waitingCount="1" stopTime="0.00" timeLoss="11.03" rerouteNo="0" devices="vehroute_flow_12_phase1_E_uturn.0 tripinfo_flow_12_phase1_E_uturn.0" vType="moto" speedFactor="1.03" vaporized=""/>
    <tripinfo id="flow_13_phase1_W_straight.1" depart="14.00" departLane="W_in_1" departPos="121.65" departSpeed="2.86" departDelay="0.62" arrival="40.00" arrivalLane="E_out_1" arrivalPos="189.60" arrivalSpeed="14.86" duration="26.00" routeLength="278.35" waitingTime="0.00" waitingCount="0" stopTime="0.00" timeLoss="7.96" rerouteNo="0" devices="vehroute_flow_13_phase1_W_straight.1 tripinfo_flow_13_phase1_W_straight.1" vType="car" speedFactor="1.12" vaporized=""/>
    <tripinfo id="flow_9_phase1_E_straight.0" depart="0.00" departLane="E_in_0" departPos="168.29" departSpeed="9.83" departDelay="0.00" arrival="41.00" arrivalLane="W_out_0" arrivalPos="189.60" arrivalSpeed="12.16" duration="41.00" routeLength="231.71" waitingTime="12.00" waitingCount="1" stopTime="0.00" timeLoss="21.84" rerouteNo="0" devices="vehroute_flow_9_phase1_E_straight.0 tripinfo_flow_9_phase1_E_straight.0" vType="truck" speedFactor="0.90" vaporized=""/>
    <tripinfo id="flow_15_phase1_W_right.0" depart="0.00" departLane="W_in_0" departPos="108.38" departSpeed="2.63" departDelay="0.00" arrival="41.00" arrivalLane="E_out_0" arrivalPos="189.60" arrivalSpeed="11.19" duration="41.00" routeLength="291.62" waitingTime="8.00" waitingCount="1" stopTime="0.00" timeLoss="15.37" rerouteNo="0" devices="vehroute_flow_15_phase1_W_right.0 tripinfo_flow_15_phase1_W_right.0" vType="moto" speedFactor="0.85" vaporized=""/>
    <tripinfo id="flow_9_phase1_E_straight.1" depart="13.00" departLane="E_in_0" departPos="131.13" departSpeed="9.54" departDelay="0.12" arrival="43.00" arrivalLane="W_out_0" arrivalPos="189.60" arrivalSpeed="14.96" duration="30.00" routeLength="268.87" waitingTime="0.00" waitingCount="0" stopTime="0.00" timeLoss="12.34" rerouteNo="0" devices="vehroute_flow_9_phase1_E_straight.1 tripinfo_flow_9_phase1_E_straight.1" vType="moto" speedFactor="1.16" vaporized=""/>
    <tripinfo id="flow_13_phase1_W_straight.0" depart="0.00" departLane="W_in_0" departPos="24.53" departSpeed="3.79" departDelay="0.00" arrival="45.00" arrivalLane="E_out_0" arrivalPos="189.60" arrivalSpeed="11.32" duration="45.00" routeLength="375.47" waitingTime="0.00" waitingCount="0" stopTime="0.00" timeLoss="11.72" rerouteNo="0" devices="vehroute_flow_13_phase1_W_straight.0 tripinfo_flow_13_phase1_W_straight.0" vType="container" speedFactor="0.82" vaporized=""/>
    <tripinfo id="flow_11_phase1_E_right.0" depart="0.00" departLane="E_in_1" departPos="144.95" departSpeed="4.02" departDelay="0.00" arrival="48.00" arrivalLane="E_out_1" arrivalPos="189.60" arrivalSpeed="13.02" duration="48.00" routeLength="238.92" waitingTime="14.00" waitingCount="2" stopTime="0.00" timeLoss="28.30" rerouteNo="0" devices="vehroute_flow_11_phase1_E_right.0 tripinfo_flow_11_phase1_E_right.0" vType="bus" speedFactor="0.96" vaporized=""/>
    <tripinfo id="flow_5_phase1_S_straight.1" depart="14.00" departLane="S_in_1" departPos="31.93" departSpeed="9.28" departDelay="0.77" arrival="48.00" arrivalLane="N_out_1" arrivalPos="189.60" arrivalSpeed="15.90" duration="34.00" routeLength="368.07" waitingTime="2.00" waitingCount="1" stopTime="0.00" timeLoss="10.22" rerouteNo="0" devices="vehroute_flow_5_phase1_S_straight.1 tripinfo_flow_5_phase1_S_straight.1" vType="moto" speedFactor="1.19" vaporized=""/>
    <tripinfo id="flow_2_phase1_N_left.0" depart="0.00" departLane="N_in_1" departPos="8.27" departSpeed="8.33" departDelay="0.00" arrival="53.00" arrivalLane="E_out_1" arrivalPos="189.60" arrivalSpeed="13.67" duration="53.00" routeLength="390.28" waitingTime="14.00" waitingCount="2" stopTime="0.00" timeLoss="23.98" rerouteNo="0" devices="vehroute_flow_2_phase1_N_left.0 tripinfo_flow_2_phase1_N_left.0" vType="moto" speedFactor="1.02" vaporized=""/>
    <tripinfo id="flow_1_phase1_N_straight.0" depart="0.00" departLane="N_in_0" departPos="8.62" departSpeed="8.51" departDelay="0.00" arrival="54.00" arrivalLane="W_out_0" arrivalPos="189.60" arrivalSpeed="11.48" duration="54.00" routeLength="379.61" waitingTime="11.00" waitingCount="1" stopTime="0.00" timeLoss="20.99" rerouteNo="0" devices="vehroute_flow_1_phase1_N_straight.0 tripinfo_flow_1_phase1_N_straight.0" vType="bus" speedFactor="0.86" vaporized=""/>
    <tripinfo id="flow_1_phase1_N_straight.1" depart="14.00" departLane="N_in_1" departPos="58.36" departSpeed="11.64" departDelay="0.48" arrival="56.00" arrivalLane="W_out_0" arrivalPos="189.60" arrivalSpeed="11.57" duration="42.00" routeLength="329.87" waitingTime="4.00" waitingCount="1" stopTime="0.00" timeLoss="13.83" rerouteNo="0" devices="vehroute_flow_1_phase1_N_straight.1 tripinfo_flow_1_phase1_N_straight.1" vType="moto" speedFactor="0.87" vaporized=""/>
    <tripinfo id="flow_7_phase1_S_right.0" depart="0.00" departLane="S_in_0" departPos="8.76" departSpeed="8.07" departDelay="0.00" arrival="58.00" arrivalLane="E_out_0" arrivalPos="189.60" arrivalSpeed="11.78" duration="58.00" routeLength="379.47" waitingTime="12.00" waitingCount="1" stopTime="0.00" timeLoss="24.35" rerouteNo="0" devices="vehroute_flow_7_phase1_S_right.0 tripinfo_flow_7_phase1_S_right.0" vType="container" speedFactor="0.85" vaporized=""/>
    <tripinfo id="flow_5_phase1_S_straight.2" depart="27.00" departLane="S_in_1" departPos="12.70" departSpeed="12.41" departDelay="0.54" arrival="58.00" arrivalLane="N_out_1" arrivalPos="189.60" arrivalSpeed="13.35" duration="31.00" routeLength="387.30" waitingTime="0.00" waitingCount="0" stopTime="0.00" timeLoss="1.38" rerouteNo="0" devices="vehroute_flow_5_phase1_S_straight.2 tripinfo_flow_5_phase1_S_straight.2" vType="moto" speedFactor="0.96" vaporized=""/>
    <tripinfo id="flow_1_phase1_N_straight.2" depart="28.00" departLane="N_in_1" departPos="107.53" departSpeed="1.11" departDelay="0.97" arrival="58.00" arrivalLane="W_out_0" arrivalPos="189.60" arrivalSpeed="12.15" duration="30.00" routeLength="280.70" waitingTime="0.00" waitingCount="0" stopTime="0.00" timeLoss="6.63" rerouteNo="0" devices="vehroute_flow_1_phase1_N_straight.2 tripinfo_flow_1_phase1_N_straight.2" vType="moto" speedFactor="0.93" vaporized=""/>
    <tripinfo id="flow_6_phase1_S_left.1" depart="34.00" departLane="S_in_1" departPos="79.10" departSpeed="8.50" departDelay="0.55" arrival="59.00" arrivalLane="W_out_1" arrivalPos="189.60" arrivalSpeed="13.37" duration="25.00" routeLength="319.45" waitingTime="0.00" waitingCount="0" stopTime="0.00" timeLoss="2.18" rerouteNo="0" devices="vehroute_flow_6_phase1_S_left.1 tripinfo_flow_6_phase1_S_left.1" vType="moto" speedFactor="1.05" vaporized=""/>
    <tripinfo id="flow_3_phase1_N_right.1" depart="35.00" departLane="N_in_0" departPos="118.54" departSpeed="1.28" departDelay="0.82" arrival="63.00" arrivalLane="W_out_0" arrivalPos="189.60" arrivalSpeed="11.78" duration="28.00" routeLength="269.69" waitingTime="0.00" waitingCount="0" stopTime="0.00" timeLoss="4.54" rerouteNo="0" devices="vehroute_flow_3_phase1_N_right.1 tripinfo_flow_3_phase1_N_right.1" vType="moto" speedFactor="0.88" vaporized=""/>
    <tripinfo id="flow_5_phase1_S_straight.3" depart="40.00" departLane="S_in_1" departPos="77.94" departSpeed="4.43" departDelay="0.31" arrival="64.00" arrivalLane="N_out_1" arrivalPos="189.60" arrivalSpeed="14.69" duration="24.00" routeLength="322.06" waitingTime="0.00" waitingCount="0" stopTime="0.00" timeLoss="2.35" rerouteNo="0" devices="vehroute_flow_5_phase1_S_straight.3 tripinfo_flow_5_phase1_S_straight.3" vType="moto" speedFactor="1.08" vaporized=""/>
    <tripinfo id="flow_2_phase1_N_left.1" depart="33.00" departLane="N_in_0" departPos="8.88" departSpeed="2.82" departDelay="0.32" arrival="68.00" arrivalLane="E_out_1" arrivalPos="189.60" arrivalSpeed="15.24" duration="35.00" routeLength="389.67" waitingTime="0.00" waitingCount="0" stopTime="0.00" timeLoss="9.10" rerouteNo="0" devices="vehroute_flow_2_phase1_N_left.1 tripinfo_flow_2_phase1_N_left.1" vType="moto" speedFactor="1.12" vaporized=""/>
    <tripinfo id="flow_7_phase1_S_right.1" depart="33.00" departLane="S_in_1" departPos="66.71" departSpeed="7.87" departDelay="0.51" arrival="69.00" arrivalLane="E_out_0" arrivalPos="189.60" arrivalSpeed="10.73" duration="36.00" routeLength="321.52" waitingTime="0.00" waitingCount="0" stopTime="0.00" timeLoss="5.55" rerouteNo="0" devices="vehroute_flow_7_phase1_S_right.1 tripinfo_flow_7_phase1_S_right.1" vType="container" speedFactor="0.78" vaporized=""/>
    <tripinfo id="flow_9_phase1_E_straight.2" depart="26.00" departLane="E_in_1" departPos="52.87" departSpeed="0.38" departDelay="0.25" arrival="72.00" arrivalLane="W_out_0" arrivalPos="189.60" arrivalSpeed="12.99" duration="46.00" routeLength="347.13" waitingTime="10.00" waitingCount="1" stopTime="0.00" timeLoss="20.78" rerouteNo="0" devices="vehroute_flow_9_phase1_E_straight.2 tripinfo_flow_9_phase1_E_straight.2" vType="moto" speedFactor="0.99" vaporized=""/>
    <tripinfo id="flow_15_phase1_W_right.1" depart="33.00" departLane="W_in_1" departPos="97.23" departSpeed="5.84" departDelay="0.16" arrival="72.00" arrivalLane="E_out_0" arrivalPos="189.60" arrivalSpeed="13.98" duration="39.00" routeLength="302.77" waitingTime="8.00" waitingCount="1" stopTime="0.00" timeLoss="18.34" rerouteNo="0" devices="vehroute_flow_15_phase1_W_right.1 tripinfo_flow_15_phase1_W_right.1" vType="moto" speedFactor="1.08" vaporized=""/>
    <tripinfo id="flow_13_phase1_W_straight.3" depart="41.00" departLane="W_in_0" departPos="148.08" departSpeed="9.64" departDelay="0.85" arrival="74.00" arrivalLane="E_out_0" arrivalPos="189.60" arrivalSpeed="13.79" duration="33.00" routeLength="251.92" waitingTime="7.00" waitingCount="1" stopTime="0.00" timeLoss="14.78" rerouteNo="0" devices="vehroute_flow_13_phase1_W_straight.3 tripinfo_flow_13_phase1_W_straight.3" vType="car" speedFactor="1.05" vaporized=""/>
    <tripinfo id="flow_13_phase1_W_straight.2" depart="27.00" departLane="W_in_1" departPos="59.51" departSpeed="13.32" departDelay="0.23" arrival="78.00" arrivalLane="E_out_0" arrivalPos="189.60" arrivalSpeed="13.05" duration="51.00" routeLength="340.49" waitingTime="13.00" waitingCount="1" stopTime="0.00" timeLoss="25.11" rerouteNo="0" devices="vehroute_flow_13_phase1_W_straight.2 tripinfo_flow_13_phase1_W_straight.2" vType="bus" speedFactor="0.97" vaporized=""/>
    <tripinfo id="flow_11_phase1_E_right.1" depart="33.00" departLane="E_in_1" departPos="80.24" departSpeed="3.06" departDelay="0.51" arrival="81.00" arrivalLane="E_out_1" arrivalPos="189.60" arrivalSpeed="13.45" duration="48.00" routeLength="303.63" waitingTime="15.00" waitingCount="2" stopTime="0.00" timeLoss="25.47" rerouteNo="0" devices="vehroute_flow_11_phase1_E_right.1 tripinfo_flow_11_phase1_E_right.1" vType="moto" speedFactor="1.04" vaporized=""/>
    <tripinfo id="flow_9_phase1_E_straight.3" depart="39.00" departLane="E_in_1" departPos="108.76" departSpeed="5.39" departDelay="0.37" arrival="82.00" arrivalLane="W_out_0" arrivalPos="189.60" arrivalSpeed="11.24" duration="43.00" routeLength="291.24" waitingTime="3.00" waitingCount="1" stopTime="0.00" timeLoss="18.27" rerouteNo="0" devices="vehroute_flow_9_phase1_E_straight.3 tripinfo_flow_9_phase1_E_straight.3" vType="bus" speedFactor="0.85" vaporized=""/>
    <tripinfo id="flow_14_phase1_W_left.1" depart="35.00" departLane="W_in_1" departPos="80.60" departSpeed="6.26" departDelay="0.53" arrival="84.00" arrivalLane="E_out_0" arrivalPos="189.60" arrivalSpeed="12.28" duration="49.00" routeLength="319.40" waitingTime="5.00" waitingCount="1" stopTime="0.00" timeLoss="23.08" rerouteNo="0" devices="vehroute_flow_14_phase1_W_left.1 tripinfo_flow_14_phase1_W_left.1" vType="container" speedFactor="0.91" vaporized=""/>
    <tripinfo id="flow_1_phase1_N_straight.3" depart="41.00" departLane="N_in_0" departPos="19.25" departSpeed="11.19" departDelay="0.45" arrival="84.00" arrivalLane="W_out_0" arrivalPos="189.60" arrivalSpeed="15.81" duration="43.00" routeLength="368.98" waitingTime="11.00" waitingCount="1" stopTime="0.00" timeLoss="19.09" rerouteNo="0" devices="vehroute_flow_1_phase1_N_straight.3 tripinfo_flow_1_phase1_N_straight.3" vType="moto" speedFactor="1.20" vaporized=""/>
    <tripinfo id="flow_1_phase1_N_straight.4" depart="55.00" departLane="N_in_1" departPos="160.30" departSpeed="8.60" departDelay="0.94" arrival="90.00" arrivalLane="W_out_0" arrivalPos="189.60" arrivalSpeed="12.49" duration="35.00" routeLength="227.93" waitingTime="6.00" waitingCount="1" stopTime="0.00" timeLoss="15.96" rerouteNo="0" devices="vehroute_flow_1_phase1_N_straight.4 tripinfo_flow_1_phase1_N_straight.4" vType="truck" speedFactor="0.92" vaporized=""/>
    <tripinfo id="flow_10_phase1_E_left.2" depart="67.00" departLane="N_in_1" departPos="172.37" departSpeed="6.44" departDelay="0.00" arrival="90.00" arrivalLane="N_out_1" arrivalPos="189.60" arrivalSpeed="14.52" duration="23.00" routeLength="211.50" waitingTime="0.00" waitingCount="0" stopTime="0.00" timeLoss="7.78" rerouteNo="0" devices="vehroute_flow_10_phase1_E_left.2 tripinfo_flow_10_phase1_E_left.2" vType="moto" speedFactor="1.07" vaporized=""/>
    <tripinfo id="flow_6_phase1_S_left.2" depart="67.00" departLane="S_in_1" departPos="174.17" departSpeed="8.14" departDelay="0.10" arrival="91.00" arrivalLane="W_out_1" arrivalPos="189.60" arrivalSpeed="12.35" duration="24.00" routeLength="224.38" waitingTime="0.00" waitingCount="0" stopTime="0.00" timeLoss="4.28" rerouteNo="0" devices="vehroute_flow_6_phase1_S_left.2 tripinfo_flow_6_phase1_S_left.2" vType="truck" speedFactor="0.89" vaporized=""/>
    <tripinfo id="flow_10_phase1_E_left.1" depart="34.00" departLane="N_in_0" departPos="4.52" departSpeed="4.14" departDelay="0.50" arrival="92.00" arrivalLane="N_out_0" arrivalPos="189.60" arrivalSpeed="10.34" duration="58.00" routeLength="379.35" waitingTime="9.00" waitingCount="1" stopTime="0.00" timeLoss="20.58" rerouteNo="0" devices="vehroute_flow_10_phase1_E_left.1 tripinfo_flow_10_phase1_E_left.1" vType="truck" speedFactor="0.77" vaporized=""/>
    <tripinfo id="flow_1_phase1_N_straight.5" depart="68.00" departLane="N_in_1" departPos="159.96" departSpeed="5.80" departDelay="0.42" arrival="92.00" arrivalLane="W_out_0" arrivalPos="189.60" arrivalSpeed="11.98" duration="24.00" routeLength="228.27" waitingTime="0.00" waitingCount="0" stopTime="0.00" timeLoss="4.87" rerouteNo="0" devices="vehroute_flow_1_phase1_N_straight.5 tripinfo_flow_1_phase1_N_straight.5" vType="moto" speedFactor="0.90" vaporized=""/>
    <tripinfo id="flow_8_phase1_S_uturn.1" depart="66.00" departLane="S_in_0" departPos="155.68" departSpeed="8.31" departDelay="0.07" arrival="93.00" arrivalLane="E_out_0" arrivalPos="189.60" arrivalSpeed="12.88" duration="27.00" routeLength="232.55" waitingTime="0.00" waitingCount="0" stopTime="0.00" timeLoss="7.59" rerouteNo="0" devices="vehroute_flow_8_phase1_S_uturn.1 tripinfo_flow_8_phase1_S_uturn.1" vType="truck" speedFactor="0.94" vaporized=""/>
    <tripinfo id="flow_5_phase1_S_straight.4" depart="53.00" departLane="S_in_0" departPos="70.46" departSpeed="11.90" departDelay="0.08" arrival="94.00" arrivalLane="N_out_0" arrivalPos="189.60" arrivalSpeed="11.09" duration="41.00" routeLength="329.54" waitingTime="2.00" waitingCount="1" stopTime="0.00" timeLoss="16.21" rerouteNo="0" devices="vehroute_flow_5_phase1_S_straight.4 tripinfo_flow_5_phase1_S_straight.4" vType="container" speedFactor="0.97" vaporized=""/>
    <tripinfo id="flow_11_phase1_E_right.2" depart="65.00" departLane="E_in_1" departPos="129.09" departSpeed="6.03" departDelay="0.02" arrival="96.00" arrivalLane="E_out_1" arrivalPos="189.60" arrivalSpeed="15.44" duration="31.00" routeLength="254.78" waitingTime="1.00" waitingCount="1" stopTime="0.00" timeLoss="13.86" rerouteNo="0" devices="vehroute_flow_11_phase1_E_right.2 tripinfo_flow_11_phase1_E_right.2" vType="moto" speedFactor="1.14" vaporized=""/>
    <tripinfo id="flow_9_phase1_E_straight.5" depart="65.00" departLane="E_in_1" departPos="111.69" departSpeed="5.97" departDelay="0.62" arrival="100.00" arrivalLane="W_out_1" arrivalPos="189.60" arrivalSpeed="12.97" duration="35.00" routeLength="288.31" waitingTime="1.00" waitingCount="1" stopTime="0.00" timeLoss="13.76" rerouteNo="0" devices="vehroute_flow_9_phase1_E_straight.5 tripinfo_flow_9_phase1_E_straight.5" vType="moto" speedFactor="1.00" vaporized=""/>
    <tripinfo id="flow_13_phase1_W_straight.5" depart="67.00" departLane="W_in_0" departPos="74.60" departSpeed="1.81" departDelay="0.08" arrival="102.00" arrivalLane="E_out_1" arrivalPos="189.60" arrivalSpeed="14.67" duration="35.00" routeLength="325.40" waitingTime="0.00" waitingCount="0" stopTime="0.00" timeLoss="13.62" rerouteNo="0" devices="vehroute_flow_13_phase1_W_straight.5 tripinfo_flow_13_phase1_W_straight.5" vType="moto" speedFactor="1.14" vaporized=""/>
    <tripinfo id="flow_9_phase1_E_straight.6" depart="78.00" departLane="E_in_1" departPos="152.01" departSpeed="5.20" departDelay="0.74" arrival="102.00" arrivalLane="W_out_1" arrivalPos="189.60" arrivalSpeed="13.55" duration="24.00" routeLength="247.99" waitingTime="0.00" waitingCount="0" stopTime="0.00" timeLoss="5.59" rerouteNo="0" devices="vehroute_flow_9_phase1_E_straight.6 tripinfo_flow_9_phase1_E_straight.6" vType="moto" speedFactor="1.02" vaporized=""/>
    <tripinfo id="flow_9_phase1_E_straight.4" depart="52.00" departLane="E_in_1" departPos="135.24" departSpeed="9.43" departDelay="0.49" arrival="103.00" arrivalLane="W_out_0" arrivalPos="189.60" arrivalSpeed="12.77" duration="51.00" routeLength="264.76" waitingTime="15.00" waitingCount="2" stopTime="0.00" timeLoss="30.51" rerouteNo="0" devices="vehroute_flow_9_phase1_E_straight.4 tripinfo_flow_9_phase1_E_straight.4" vType="bus" speedFactor="0.95" vaporized=""/>
    <tripinfo id="flow_13_phase1_W_straight.4" depart="54.00" departLane="W_in_1" departPos="74.07" departSpeed="0.51" departDelay="0.46" arrival="103.00" arrivalLane="E_out_0" arrivalPos="189.60" arrivalSpeed="12.05" duration="49.00" routeLength="325.93" waitingTime="7.00" waitingCount="1" stopTime="0.00" timeLoss="21.92" rerouteNo="0" devices="vehroute_flow_13_phase1_W_straight.4 tripinfo_flow_13_phase1_W_straight.4" vType="bus" speedFactor="0.87" vaporized=""/>
    <tripinfo id="flow_12_phase1_E_uturn.1" depart="66.00" departLane="E_in_1" departPos="2.77" departSpeed="7.27" departDelay="0.19" arrival="103.00" arrivalLane="N_out_0" arrivalPos="189.60" arrivalSpeed="12.71" duration="37.00" routeLength="385.46" waitingTime="0.00" waitingCount="0" stopTime="0.00" timeLoss="7.12" rerouteNo="0" devices="vehroute_flow_12_phase1_E_uturn.1 tripinfo_flow_12_phase1_E_uturn.1" vType="moto" speedFactor="0.95" vaporized=""/>
    <tripinfo id="flow_16_phase1_W_uturn.1" depart="67.00" departLane="W_in_1" departPos="177.50" departSpeed="7.04" departDelay="0.80" arrival="105.00" arrivalLane="W_out_1" arrivalPos="189.60" arrivalSpeed="13.73" duration="38.00" routeLength="206.37" waitingTime="15.00" waitingCount="2" stopTime="0.00" timeLoss="22.36" rerouteNo="0" devices="vehroute_flow_16_phase1_W_uturn.1 tripinfo_flow_16_phase1_W_uturn.1" vType="moto" speedFactor="1.04" vaporized=""/>
    <tripinfo id="flow_14_phase1_W_left.2" depart="69.00" departLane="W_in_1" departPos="137.11" departSpeed="4.03" departDelay="0.06" arrival="108.00" arrivalLane="E_out_0" arrivalPos="189.60" arrivalSpeed="11.97" duration="39.00" routeLength="262.89" waitingTime="8.00" waitingCount="2" stopTime="0.00" timeLoss="17.74" rerouteNo="0" devices="vehroute_flow_14_phase1_W_left.2 tripinfo_flow_14_phase1_W_left.2" vType="car" speedFactor="0.90" vaporized=""/>
    <tripinfo id="flow_3_phase1_N_right.2" depart="69.00" departLane="N_in_1" departPos="29.07" departSpeed="3.19" departDelay="0.63" arrival="109.00" arrivalLane="W_out_0" arrivalPos="189.60" arrivalSpeed="15.33" duration="40.00" routeLength="359.16" waitingTime="8.00" waitingCount="1" stopTime="0.00" timeLoss="16.18" rerouteNo="0" devices="vehroute_flow_3_phase1_N_right.2 tripinfo_flow_3_phase1_N_right.2" vType="moto" speedFactor="1.10" vaporized=""/>
    <tripinfo id="flow_7_phase1_S_right.2" depart="65.00" departLane="S_in_1" departPos="65.33" departSpeed="12.93" departDelay="0.01" arrival="111.00" arrivalLane="E_out_0" arrivalPos="189.60" arrivalSpeed="13.14" duration="46.00" routeLength="322.90" waitingTime="14.00" waitingCount="1" stopTime="0.00" timeLoss="22.09" rerouteNo="0" devices="vehroute_flow_7_phase1_S_right.2 tripinfo_flow_7_phase1_S_right.2" vType="moto" speedFactor="1.03" vaporized=""/>
    <tripinfo id="flow_5_phase1_S_straight.5" depart="67.00" departLane="S_in_0" departPos="64.25" departSpeed="6.71" departDelay="0.85" arrival="111.00" arrivalLane="N_out_1" arrivalPos="189.60" arrivalSpeed="13.22" duration="44.00" routeLength="335.75" waitingTime="11.00" waitingCount="1" stopTime="0.00" timeLoss="19.61" rerouteNo="0" devices="vehroute_flow_5_phase1_S_straight.5 tripinfo_flow_5_phase1_S_straight.5" vType="moto" speedFactor="1.03" vaporized=""/>
    <tripinfo id="flow_5_phase1_S_straight.6" depart="80.00" departLane="S_in_0" departPos="24.55" departSpeed="8.85" departDelay="0.62" arrival="112.00" arrivalLane="N_out_0" arrivalPos="189.60" arrivalSpeed="14.14" duration="32.00" routeLength="375.45" waitingTime="0.00" waitingCount="0" stopTime="0.00" timeLoss="6.54" rerouteNo="0" devices="vehroute_flow_5_phase1_S_straight.6 tripinfo_flow_5_phase1_S_straight.6" vType="moto" speedFactor="1.10" vaporized=""/>
    <tripinfo id="flow_1_phase1_N_straight.6" depart="82.00" departLane="N_in_1" departPos="37.04" departSpeed="3.10" departDelay="0.90" arrival="114.00" arrivalLane="W_out_0" arrivalPos="189.60" arrivalSpeed="12.72" duration="32.00" routeLength="351.19" waitingTime="0.00" waitingCount="0" stopTime="0.00" timeLoss="5.30" rerouteNo="0" devices="vehroute_flow_1_phase1_N_straight.6 tripinfo_flow_1_phase1_N_straight.6" vType="car" speedFactor="0.98" vaporized=""/>
    <tripinfo id="flow_2_phase1_N_left.2" depart="66.00" departLane="N_in_1" departPos="19.51" departSpeed="8.76" departDelay="0.64" arrival="115.00" arrivalLane="E_out_1" arrivalPos="189.60" arrivalSpeed="14.83" duration="49.00" routeLength="379.04" waitingTime="15.00" waitingCount="2" stopTime="0.00" timeLoss="22.88" rerouteNo="0" devices="vehroute_flow_2_phase1_N_left.2 tripinfo_flow_2_phase1_N_left.2" vType="emergency" speedFactor="1.10" vaporized=""/>
    <tripinfo id="flow_1_phase1_N_straight.7" depart="95.00" departLane="N_in_1" departPos="150.35" departSpeed="8.40" departDelay="0.39" arrival="116.00" arrivalLane="W_out_0" arrivalPos="189.60" arrivalSpeed="14.23" duration="21.00" routeLength="237.88" waitingTime="0.00" waitingCount="0" stopTime="0.00" timeLoss="3.64" rerouteNo="0" devices="vehroute_flow_1_phase1_N_straight.7 tripinfo_flow_1_phase1_N_straight.7" vType="moto" speedFactor="1.06" vaporized=""/>
    <tripinfo id="flow_10_phase1_E_left.3" depart="101.00" departLane="N_in_1" departPos="186.24" departSpeed="2.82" departDelay="0.50" arrival="121.00" arrivalLane="N_out_1" arrivalPos="189.60" arrivalSpeed="14.42" duration="20.00" routeLength="197.63" waitingTime="0.00" waitingCount="0" stopTime="0.00" timeLoss="4.91" rerouteNo="0" devices="vehroute_flow_10_phase1_E_left.3 tripinfo_flow_10_phase1_E_left.3" vType="truck" speedFactor="1.07" vaporized=""/>
    <tripinfo id="flow_9_phase1_E_straight.7" depart="91.00" departLane="E_in_1" departPos="47.50" departSpeed="4.50" departDelay="0.86" arrival="124.00" arrivalLane="W_out_0" arrivalPos="189.60" arrivalSpeed="12.89" duration="33.00" routeLength="352.50" waitingTime="0.00" waitingCount="0" stopTime="0.00" timeLoss="7.19" rerouteNo="0" devices="vehroute_flow_9_phase1_E_straight.7 tripinfo_flow_9_phase1_E_straight.7" vType="moto" speedFactor="1.01" vaporized=""/>
    <tripinfo id="flow_4_phase1_N_uturn.1" depart="67.00" departLane="W_in_1" departPos="65.57" departSpeed="2.18" departDelay="0.96" arrival="125.00" arrivalLane="E_out_0" arrivalPos="189.60" arrivalSpeed="12.64" duration="58.00" routeLength="334.43" waitingTime="13.00" waitingCount="2" stopTime="0.00" timeLoss="31.87" rerouteNo="0" devices="vehroute_flow_4_phase1_N_uturn.1 tripinfo_flow_4_phase1_N_uturn.1" vType="moto" speedFactor="0.94" vaporized=""/>
    <tripinfo id="flow_15_phase1_W_right.2" depart="66.00" departLane="W_in_0" departPos="91.52" departSpeed="10.95" departDelay="0.32" arrival="126.00" arrivalLane="E_out_1" arrivalPos="189.60" arrivalSpeed="11.62" duration="60.00" routeLength="308.48" waitingTime="20.00" waitingCount="3" stopTime="0.00" timeLoss="34.46" rerouteNo="0" devices="vehroute_flow_15_phase1_W_right.2 tripinfo_flow_15_phase1_W_right.2" vType="moto" speedFactor="0.89" vaporized=""/>