<?xml version="1.0" encoding="UTF-8"?>

<!-- generated on 2025-12-08 21:40:35 by Eclipse SUMO sumo Version 1.18.0
<configuration xmlns:xsi="http://www.w3.org/2001/XMLSchema-instance" xsi:noNamespaceSchemaLocation="http://sumo.dlr.de/xsd/sumoConfiguration.xsd">

    <input>
        <net-file value="nets/60p2k/net.net.xml"/>
        <route-files value="nets/60p2k/route_temp_281_124147880884016_33742306.rou.xml"/>
    </input>

    <output>
        <summary-output value="result_ddqn_1.9_0.4/summary_ep_4.xml"/>
        <tripinfo-output value="result_ddqn_1.9_0.4/tripinfo_ep_4.xml"/>
        <vehroute-output value="result_ddqn_1.9_0.4/vehroute_ep_4.xml"/>
    </output>

    <time>
        <begin value="0"/>
    </time>

    <report>
        <verbose value="true"/>
        <no-warnings value="true"/>
        <no-step-log value="true"/>
    </report>

    <traci_server>
        <remote-port value="42409"/>
    </traci_server>

    <gui_only>
        <gui-settings-file value="nets/60p2k/gui-settings.xml"/>
        <quit-on-end value="true"/>
    </gui_only>

</configuration>
-->

<tripinfos xmlns:xsi="http://www.w3.org/2001/XMLSchema-instance" xsi:noNamespaceSchemaLocation="http://sumo.dlr.de/xsd/tripinfo_file.xsd">
    <tripinfo id="flow_8_phase1_S_uturn.0" depart="0.00" departLane="N_in_0" departPos="120.11" departSpeed="4.48" departDelay="0.00" arrival="24.00" arrivalLane="W_out_0" arrivalPos="189.60" arrivalSpeed="13.59" duration="24.00" routeLength="268.12" waitingTime="0.00" waitingCount="0" stopTime="0.00" timeLoss="4.36" rerouteNo="0" devices="vehroute_flow_8_phase1_S_uturn.0 tripinfo_flow_8_phase1_S_uturn.0" vType="moto" speedFactor="1.05" vaporized=""/>
    <tripinfo id="flow_5_phase1_S_straight.0" depart="0.00" departLane="S_in_1" departPos="107.37" departSpeed="7.21" departDelay="0.00" arrival="25.00" arrivalLane="N_out_0" arrivalPos="189.60" arrivalSpeed="15.37" duration="25.00" routeLength="292.63" waitingTime="0.00" waitingCount="0" stopTime="0.00" timeLoss="5.93" rerouteNo="0" devices="vehroute_flow_5_phase1_S_straight.0 tripinfo_flow_5_phase1_S_straight.0" vType="moto" speedFactor="1.15" vaporized=""/>
    <tripinfo id="flow_6_phase1_S_left.0" depart="0.00" departLane="S_in_1" departPos="166.01" departSpeed="0.74" departDelay="0.00" arrival="25.00" arrivalLane="W_out_1" arrivalPos="189.60" arrivalSpeed="11.57" duration="25.00" routeLength="232.54" waitingTime="0.00" waitingCount="0" stopTime="0.00" timeLoss="4.39" rerouteNo="0" devices="vehroute_flow_6_phase1_S_left.0 tripinfo_flow_6_phase1_S_left.0" vType="moto" speedFactor="0.88" vaporized=""/>
    <tripinfo id="flow_16_phase1_W_uturn.0" depart="0.00" departLane="S_in_1" departPos="126.68" departSpeed="1.28" departDelay="0.00" arrival="25.00" arrivalLane="S_out_1" arrivalPos="189.60" arrivalSpeed="13.18" duration="25.00" routeLength="257.19" waitingTime="0.00" waitingCount="0" stopTime="0.00" timeLoss="6.43" rerouteNo="0" devices="vehroute_flow_16_phase1_W_uturn.0 tripinfo_flow_16_phase1_W_uturn.0" vType="moto" speedFactor="1.04" vaporized=""/>
    <tripinfo id="flow_3_phase1_N_right.0" depart="0.00" departLane="N_in_0" departPos="103.38" departSpeed="3.75" departDelay="0.00" arrival="26.00" arrivalLane="W_out_0" arrivalPos="189.60" arrivalSpeed="14.03" duration="26.00" routeLength="284.85" waitingTime="0.00" waitingCount="0" stopTime="0.00" timeLoss="5.85" rerouteNo="0" devices="vehroute_flow_3_phase1_N_right.0 tripinfo_flow_3_phase1_N_right.0" vType="car" speedFactor="1.09" vaporized=""/>
    <tripinfo id="flow_2_phase1_N_left.0" depart="0.00" departLane="N_in_1" departPos="8.27" departSpeed="8.33" departDelay="0.00" arrival="31.00" arrivalLane="E_out_1" arrivalPos="189.60" arrivalSpeed="13.89" duration="31.00" routeLength="390.28" waitingTime="0.00" waitingCount="0" stopTime="0.00" timeLoss="2.61" rerouteNo="0" devices="vehroute_flow_2_phase1_N_left.0 tripinfo_flow_2_phase1_N_left.0" vType="moto" speedFactor="1.02" vaporized=""/>
    <tripinfo id="flow_4_phase1_N_uturn.0" depart="0.00" departLane="E_in_1" departPos="127.60" departSpeed="0.08" departDelay="0.00" arrival="38.00" arrivalLane="W_out_0" arrivalPos="189.60" arrivalSpeed="11.91" duration="38.00" routeLength="272.40" waitingTime="7.00" waitingCount="1" stopTime="0.00" timeLoss="16.27" rerouteNo="0" devices="vehroute_flow_4_phase1_N_uturn.0 tripinfo_flow_4_phase1_N_uturn.0" vType="car" speedFactor="0.92" vaporized=""/>
    <tripinfo id="flow_9_phase1_E_straight.0" depart="0.00" departLane="E_in_0" departPos="168.29" departSpeed="9.83" departDelay="0.00" arrival="40.00" arrivalLane="W_out_0" arrivalPos="189.60" arrivalSpeed="12.45" duration="40.00" routeLength="231.71" waitingTime="12.00" waitingCount="1" stopTime="0.00" timeLoss="21.26" rerouteNo="0" devices="vehroute_flow_9_phase1_E_straight.0 tripinfo_flow_9_phase1_E_straight.0" vType="truck" speedFactor="0.90" vaporized=""/>
    <tripinfo id="flow_14_phase1_W_left.0" depart="0.00" departLane="W_in_1" departPos="42.31" departSpeed="3.71" departDelay="0.00" arrival="41.00" arrivalLane="N_out_1" arrivalPos="189.60" arrivalSpeed="13.17" duration="41.00" routeLength="356.24" waitingTime="6.00" waitingCount="2" stopTime="0.00" timeLoss="14.70" rerouteNo="0" devices="vehroute_flow_14_phase1_W_left.0 tripinfo_flow_14_phase1_W_left.0" vType="moto" speedFactor="1.01" vaporized=""/>
    <tripinfo id="flow_11_phase1_E_right.0" depart="0.00" departLane="E_in_1" departPos="144.95" departSpeed="4.02" departDelay="0.00" arrival="42.00" arrivalLane="N_out_0" arrivalPos="189.60" arrivalSpeed="12.78" duration="42.00" routeLength="243.28" waitingTime="11.00" waitingCount="1" stopTime="0.00" timeLoss="23.25" rerouteNo="0" devices="vehroute_flow_11_phase1_E_right.0 tripinfo_flow_11_phase1_E_right.0" vType="bus" speedFactor="0.96" vaporized=""/>
    <tripinfo id="flow_12_phase1_E_uturn.0" depart="0.00" departLane="E_in_0" departPos="5.65" departSpeed="13.76" departDelay="0.00" arrival="44.00" arrivalLane="N_out_0" arrivalPos="189.60" arrivalSpeed="14.17" duration="44.00" routeLength="382.58" waitingTime="5.00" waitingCount="1" stopTime="0.00" timeLoss="16.33" rerouteNo="0" devices="vehroute_flow_12_phase1_E_uturn.0 tripinfo_flow_12_phase1_E_uturn.0" vType="moto" speedFactor="1.03" vaporized=""/>
    <tripinfo id="flow_5_phase1_S_straight.1" depart="14.00" departLane="S_in_1" departPos="31.93" departSpeed="9.28" departDelay="0.77" arrival="47.00" arrivalLane="N_out_1" arrivalPos="189.60" arrivalSpeed="16.00" duration="33.00" routeLength="368.07" waitingTime="3.00" waitingCount="1" stopTime="0.00" timeLoss="9.89" rerouteNo="0" devices="vehroute_flow_5_phase1_S_straight.1 tripinfo_flow_5_phase1_S_straight.1" vType="moto" speedFactor="1.19" vaporized=""/>
    <tripinfo id="flow_13_phase1_W_straight.0" depart="0.00" departLane="E_in_0" departPos="77.99" departSpeed="3.79" departDelay="0.00" arrival="48.00" arrivalLane="S_out_0" arrivalPos="189.60" arrivalSpeed="11.25" duration="48.00" routeLength="320.56" waitingTime="2.00" waitingCount="1" stopTime="0.00" timeLoss="18.51" rerouteNo="0" devices="vehroute_flow_13_phase1_W_straight.0 tripinfo_flow_13_phase1_W_straight.0" vType="container" speedFactor="0.82" vaporized=""/>
    <tripinfo id="flow_1_phase1_N_straight.1" depart="14.00" departLane="N_in_1" departPos="58.36" departSpeed="11.64" departDelay="0.48" arrival="51.00" arrivalLane="S_out_0" arrivalPos="189.60" arrivalSpeed="11.86" duration="37.00" routeLength="341.64" waitingTime="2.00" waitingCount="1" stopTime="0.00" timeLoss="8.65" rerouteNo="0" devices="vehroute_flow_1_phase1_N_straight.1 tripinfo_flow_1_phase1_N_straight.1" vType="moto" speedFactor="0.87" vaporized=""/>
    <tripinfo id="flow_1_phase1_N_straight.0" depart="0.00" departLane="N_in_0" departPos="8.62" departSpeed="8.51" departDelay="0.00" arrival="56.00" arrivalLane="S_out_0" arrivalPos="189.60" arrivalSpeed="11.37" duration="56.00" routeLength="391.38" waitingTime="12.00" waitingCount="1" stopTime="0.00" timeLoss="22.99" rerouteNo="0" devices="vehroute_flow_1_phase1_N_straight.0 tripinfo_flow_1_phase1_N_straight.0" vType="bus" speedFactor="0.86" vaporized=""/>
    <tripinfo id="flow_7_phase1_S_right.0" depart="0.00" departLane="S_in_0" departPos="8.76" departSpeed="8.07" departDelay="0.00" arrival="57.00" arrivalLane="E_out_0" arrivalPos="189.60" arrivalSpeed="11.37" duration="57.00" routeLength="379.47" waitingTime="12.00" waitingCount="1" stopTime="0.00" timeLoss="23.71" rerouteNo="0" devices="vehroute_flow_7_phase1_S_right.0 tripinfo_flow_7_phase1_S_right.0" vType="container" speedFactor="0.85" vaporized=""/>
    <tripinfo id="flow_5_phase1_S_straight.2" depart="27.00" departLane="S_in_1" departPos="12.70" departSpeed="12.41" departDelay="0.54" arrival="58.00" arrivalLane="N_out_1" arrivalPos="189.60" arrivalSpeed="12.08" duration="31.00" routeLength="387.30" waitingTime="0.00" waitingCount="0" stopTime="0.00" timeLoss="1.51" rerouteNo="0" devices="vehroute_flow_5_phase1_S_straight.2 tripinfo_flow_5_phase1_S_straight.2" vType="moto" speedFactor="0.96" vaporized=""/>
    <tripinfo id="flow_2_phase1_N_left.1" depart="33.00" departLane="N_in_0" departPos="136.87" departSpeed="1.25" departDelay="0.32" arrival="60.00" arrivalLane="E_out_1" arrivalPos="189.60" arrivalSpeed="15.09" duration="27.00" routeLength="261.68" waitingTime="0.00" waitingCount="0" stopTime="0.00" timeLoss="9.11" rerouteNo="0" devices="vehroute_flow_2_phase1_N_left.1 tripinfo_flow_2_phase1_N_left.1" vType="moto" speedFactor="1.12" vaporized=""/>
    <tripinfo id="flow_9_phase1_E_straight.1" depart="13.00" departLane="E_in_0" departPos="131.13" departSpeed="9.53" departDelay="0.12" arrival="63.00" arrivalLane="W_out_0" arrivalPos="189.60" arrivalSpeed="15.94" duration="50.00" routeLength="268.87" waitingTime="15.00" waitingCount="2" stopTime="0.00" timeLoss="32.56" rerouteNo="0" devices="vehroute_flow_9_phase1_E_straight.1 tripinfo_flow_9_phase1_E_straight.1" vType="moto" speedFactor="1.16" vaporized=""/>
    <tripinfo id="flow_15_phase1_W_right.0" depart="0.00" departLane="E_in_1" departPos="45.77" departSpeed="6.73" departDelay="0.00" arrival="64.00" arrivalLane="N_out_0" arrivalPos="189.60" arrivalSpeed="11.16" duration="64.00" routeLength="342.46" waitingTime="16.00" waitingCount="2" stopTime="0.00" timeLoss="34.16" rerouteNo="0" devices="vehroute_flow_15_phase1_W_right.0 tripinfo_flow_15_phase1_W_right.0" vType="moto" speedFactor="0.85" vaporized=""/>
    <tripinfo id="flow_10_phase1_E_left.0" depart="0.00" departLane="E_in_0" departPos="44.88" departSpeed="7.69" departDelay="0.00" arrival="65.00" arrivalLane="S_out_1" arrivalPos="189.60" arrivalSpeed="13.59" duration="65.00" routeLength="353.67" waitingTime="13.00" waitingCount="1" stopTime="0.00" timeLoss="39.09" rerouteNo="0" devices="vehroute_flow_10_phase1_E_left.0 tripinfo_flow_10_phase1_E_left.0" vType="truck" speedFactor="1.02" vaporized=""/>
    <tripinfo id="flow_11_phase1_E_right.1" depart="33.00" departLane="E_in_1" departPos="156.52" departSpeed="6.10" departDelay="0.51" arrival="65.00" arrivalLane="N_out_0" arrivalPos="189.60" arrivalSpeed="13.18" duration="32.00" routeLength="231.71" waitingTime="7.00" waitingCount="1" stopTime="0.00" timeLoss="15.03" rerouteNo="0" devices="vehroute_flow_11_phase1_E_right.1 tripinfo_flow_11_phase1_E_right.1" vType="moto" speedFactor="1.04" vaporized=""/>
    <tripinfo id="flow_13_phase1_W_straight.1" depart="14.00" departLane="E_in_1" departPos="121.65" departSpeed="2.86" departDelay="0.62" arrival="67.00" arrivalLane="S_out_1" arrivalPos="189.60" arrivalSpeed="14.79" duration="53.00" routeLength="276.90" waitingTime="13.00" waitingCount="1" stopTime="0.00" timeLoss="34.28" rerouteNo="0" devices="vehroute_flow_13_phase1_W_straight.1 tripinfo_flow_13_phase1_W_straight.1" vType="car" speedFactor="1.12" vaporized=""/>
    <tripinfo id="flow_15_phase1_W_right.1" depart="33.00" departLane="E_in_0" departPos="69.24" departSpeed="6.26" departDelay="0.16" arrival="67.00" arrivalLane="N_out_0" arrivalPos="189.60" arrivalSpeed="14.72" duration="34.00" routeLength="318.99" waitingTime="0.00" waitingCount="0" stopTime="0.00" timeLoss="11.22" rerouteNo="0" devices="vehroute_flow_15_phase1_W_right.1 tripinfo_flow_15_phase1_W_right.1" vType="moto" speedFactor="1.08" vaporized=""/>
    <tripinfo id="flow_9_phase1_E_straight.3" depart="39.00" departLane="E_in_0" departPos="125.48" departSpeed="5.52" departDelay="0.37" arrival="73.00" arrivalLane="W_out_0" arrivalPos="189.60" arrivalSpeed="11.73" duration="34.00" routeLength="274.52" waitingTime="0.00" waitingCount="0" stopTime="0.00" timeLoss="10.62" rerouteNo="0" devices="vehroute_flow_9_phase1_E_straight.3 tripinfo_flow_9_phase1_E_straight.3" vType="bus" speedFactor="0.85" vaporized=""/>
    <tripinfo id="flow_10_phase1_E_left.1" depart="34.00" departLane="E_in_1" departPos="165.68" departSpeed="4.21" departDelay="0.50" arrival="74.00" arrivalLane="S_out_0" arrivalPos="189.60" arrivalSpeed="10.40" duration="40.00" routeLength="232.87" waitingTime="9.00" waitingCount="1" stopTime="0.00" timeLoss="16.92" rerouteNo="0" devices="vehroute_flow_10_phase1_E_left.1 tripinfo_flow_10_phase1_E_left.1" vType="truck" speedFactor="0.77" vaporized=""/>
    <tripinfo id="flow_3_phase1_N_right.1" depart="35.00" departLane="N_in_0" departPos="56.18" departSpeed="11.89" departDelay="0.82" arrival="79.00" arrivalLane="W_out_0" arrivalPos="189.60" arrivalSpeed="12.14" duration="44.00" routeLength="332.05" waitingTime="9.00" waitingCount="1" stopTime="0.00" timeLoss="15.66" rerouteNo="0" devices="vehroute_flow_3_phase1_N_right.1 tripinfo_flow_3_phase1_N_right.1" vType="moto" speedFactor="0.88" vaporized=""/>
    <tripinfo id="flow_5_phase1_S_straight.3" depart="40.00" departLane="S_in_1" departPos="135.04" departSpeed="4.21" departDelay="0.31" arrival="82.00" arrivalLane="N_out_0" arrivalPos="189.60" arrivalSpeed="13.97" duration="42.00" routeLength="264.96" waitingTime="13.00" waitingCount="2" stopTime="0.00" timeLoss="23.40" rerouteNo="0" devices="vehroute_flow_5_phase1_S_straight.3 tripinfo_flow_5_phase1_S_straight.3" vType="moto" speedFactor="1.08" vaporized=""/>
    <tripinfo id="flow_1_phase1_N_straight.3" depart="41.00" departLane="N_in_0" departPos="26.76" departSpeed="11.41" departDelay="0.45" arrival="83.00" arrivalLane="S_out_1" arrivalPos="189.60" arrivalSpeed="15.61" duration="42.00" routeLength="373.24" waitingTime="8.00" waitingCount="2" stopTime="0.00" timeLoss="18.53" rerouteNo="0" devices="vehroute_flow_1_phase1_N_straight.3 tripinfo_flow_1_phase1_N_straight.3" vType="moto" speedFactor="1.20" vaporized=""/>
    <tripinfo id="flow_14_phase1_W_left.1" depart="35.00" departLane="W_in_0" departPos="132.62" departSpeed="4.36" departDelay="0.53" arrival="84.00" arrivalLane="N_out_1" arrivalPos="189.60" arrivalSpeed="12.13" duration="49.00" routeLength="265.93" waitingTime="11.00" waitingCount="1" stopTime="0.00" timeLoss="26.79" rerouteNo="0" devices="vehroute_flow_14_phase1_W_left.1 tripinfo_flow_14_phase1_W_left.1" vType="container" speedFactor="0.91" vaporized=""/>
    <tripinfo id="flow_1_phase1_N_straight.2" depart="28.00" departLane="N_in_0" departPos="34.25" departSpeed="2.67" departDelay="0.97" arrival="85.00" arrivalLane="S_out_0" arrivalPos="189.60" arrivalSpeed="12.48" duration="57.00" routeLength="365.75" waitingTime="17.00" waitingCount="2" stopTime="0.00" timeLoss="28.06" rerouteNo="0" devices="vehroute_flow_1_phase1_N_straight.2 tripinfo_flow_1_phase1_N_straight.2" vType="moto" speedFactor="0.93" vaporized=""/>
    <tripinfo id="flow_7_phase1_S_right.1" depart="33.00" departLane="S_in_1" departPos="40.26" departSpeed="3.16" departDelay="0.51" arrival="85.00" arrivalLane="E_out_0" arrivalPos="189.60" arrivalSpeed="10.81" duration="52.00" routeLength="347.97" waitingTime="3.00" waitingCount="1" stopTime="0.00" timeLoss="18.18" rerouteNo="0" devices="vehroute_flow_7_phase1_S_right.1 tripinfo_flow_7_phase1_S_right.1" vType="container" speedFactor="0.78" vaporized=""/>
    <tripinfo id="flow_1_phase1_N_straight.4" depart="55.00" departLane="N_in_0" departPos="52.57" departSpeed="7.53" departDelay="0.94" arrival="87.00" arrivalLane="S_out_0" arrivalPos="189.60" arrivalSpeed="12.50" duration="32.00" routeLength="347.43" waitingTime="0.00" waitingCount="0" stopTime="0.00" timeLoss="4.40" rerouteNo="0" devices="vehroute_flow_1_phase1_N_straight.4 tripinfo_flow_1_phase1_N_straight.4" vType="truck" speedFactor="0.92" vaporized=""/>
    <tripinfo id="flow_6_phase1_S_left.1" depart="34.00" departLane="S_in_1" departPos="57.40" departSpeed="0.35" departDelay="0.55" arrival="89.00" arrivalLane="W_out_1" arrivalPos="189.60" arrivalSpeed="14.03" duration="55.00" routeLength="341.15" waitingTime="16.00" waitingCount="3" stopTime="0.00" timeLoss="30.31" rerouteNo="0" devices="vehroute_flow_6_phase1_S_left.1 tripinfo_flow_6_phase1_S_left.1" vType="moto" speedFactor="1.05" vaporized=""/>
    <tripinfo id="flow_11_phase1_E_right.2" depart="65.00" departLane="E_in_0" departPos="104.14" departSpeed="15.01" departDelay="0.02" arrival="91.00" arrivalLane="N_out_0" arrivalPos="189.60" arrivalSpeed="14.94" duration="26.00" routeLength="284.09" waitingTime="0.00" waitingCount="0" stopTime="0.00" timeLoss="6.95" rerouteNo="0" devices="vehroute_flow_11_phase1_E_right.2 tripinfo_flow_11_phase1_E_right.2" vType="moto" speedFactor="1.14" vaporized=""/>
    <tripinfo id="flow_9_phase1_E_straight.2" depart="26.00" departLane="E_in_1" departPos="52.87" departSpeed="0.38" departDelay="0.25" arrival="92.00" arrivalLane="W_out_1" arrivalPos="189.60" arrivalSpeed="12.87" duration="66.00" routeLength="347.13" waitingTime="19.00" waitingCount="3" stopTime="0.00" timeLoss="39.98" rerouteNo="0" devices="vehroute_flow_9_phase1_E_straight.2 tripinfo_flow_9_phase1_E_straight.2" vType="moto" speedFactor="0.99" vaporized=""/>
    <tripinfo id="flow_9_phase1_E_straight.4" depart="52.00" departLane="E_in_0" departPos="128.04" departSpeed="5.17" departDelay="0.49" arrival="93.00" arrivalLane="W_out_0" arrivalPos="189.60" arrivalSpeed="13.05" duration="41.00" routeLength="271.96" waitingTime="6.00" waitingCount="1" stopTime="0.00" timeLoss="19.77" rerouteNo="0" devices="vehroute_flow_9_phase1_E_straight.4 tripinfo_flow_9_phase1_E_straight.4" vType="bus" speedFactor="0.95" vaporized=""/>
    <tripinfo id="flow_12_phase1_E_uturn.1" depart="66.00" departLane="E_in_1" departPos="89.17" departSpeed="10.56" departDelay="0.19" arrival="95.00" arrivalLane="N_out_0" arrivalPos="189.60" arrivalSpeed="12.41" duration="29.00" routeLength="299.06" waitingTime="0.00" waitingCount="0" stopTime="0.00" timeLoss="5.70" rerouteNo="0" devices="vehroute_flow_12_phase1_E_uturn.1 tripinfo_flow_12_phase1_E_uturn.1" vType="moto" speedFactor="0.95" vaporized=""/>
    <tripinfo id="flow_13_phase1_W_straight.2" depart="27.00" departLane="E_in_1" departPos="16.31" departSpeed="12.86" departDelay="0.23" arrival="97.00" arrivalLane="S_out_1" arrivalPos="189.60" arrivalSpeed="13.00" duration="70.00" routeLength="382.24" waitingTime="17.00" waitingCount="3" stopTime="0.00" timeLoss="40.85" rerouteNo="0" devices="vehroute_flow_13_phase1_W_straight.2 tripinfo_flow_13_phase1_W_straight.2" vType="bus" speedFactor="0.97" vaporized=""/>
    <tripinfo id="flow_4_phase1_N_uturn.1" depart="67.00" departLane="E_in_0" departPos="78.09" departSpeed="11.85" departDelay="0.96" arrival="98.00" arrivalLane="W_out_0" arrivalPos="189.60" arrivalSpeed="11.79" duration="31.00" routeLength="321.91" waitingTime="0.00" waitingCount="0" stopTime="0.00" timeLoss="5.43" rerouteNo="0" devices="vehroute_flow_4_phase1_N_uturn.1 tripinfo_flow_4_phase1_N_uturn.1" vType="moto" speedFactor="0.94" vaporized=""/>
    <tripinfo id="flow_3_phase1_N_right.2" depart="69.00" departLane="N_in_0" departPos="149.69" departSpeed="1.99" departDelay="0.63" arrival="99.00" arrivalLane="W_out_0" arrivalPos="189.60" arrivalSpeed="14.96" duration="30.00" routeLength="238.54" waitingTime="6.00" waitingCount="1" stopTime="0.00" timeLoss="13.78" rerouteNo="0" devices="vehroute_flow_3_phase1_N_right.2 tripinfo_flow_3_phase1_N_right.2" vType="moto" speedFactor="1.10" vaporized=""/>
    <tripinfo id="flow_7_phase1_S_right.2" depart="65.00" departLane="S_in_1" departPos="112.37" departSpeed="9.73" departDelay="0.01" arrival="101.00" arrivalLane="E_out_0" arrivalPos="189.60" arrivalSpeed="14.08" duration="36.00" routeLength="275.86" waitingTime="9.00" waitingCount="1" stopTime="0.00" timeLoss="15.26" rerouteNo="0" devices="vehroute_flow_7_phase1_S_right.2 tripinfo_flow_7_phase1_S_right.2" vType="moto" speedFactor="1.03" vaporized=""/>
    <tripinfo id="flow_5_phase1_S_straight.5" depart="67.00" departLane="S_in_1" departPos="155.35" departSpeed="8.46" departDelay="0.85" arrival="103.00" arrivalLane="N_out_0" arrivalPos="189.60" arrivalSpeed="13.95" duration="36.00" routeLength="244.65" waitingTime="8.00" waitingCount="1" stopTime="0.00" timeLoss="18.23" rerouteNo="0" devices="vehroute_flow_5_phase1_S_straight.5 tripinfo_flow_5_phase1_S_straight.5" vType="moto" speedFactor="1.03" vaporized=""/>
    <tripinfo id="flow_8_phase1_S_uturn.1" depart="66.00" departLane="N_in_0" departPos="31.76" departSpeed="11.80" departDelay="0.07" arrival="107.00" arrivalLane="W_out_0" arrivalPos="189.60" arrivalSpeed="13.00" duration="41.00" routeLength="356.47" waitingTime="3.00" waitingCount="1" stopTime="0.00" timeLoss="12.28" rerouteNo="0" devices="vehroute_flow_8_phase1_S_uturn.1 tripinfo_flow_8_phase1_S_uturn.1" vType="truck" speedFactor="0.94" vaporized=""/>
    <tripinfo id="flow_5_phase1_S_straight.4" depart="53.00" departLane="S_in_1" departPos="29.12" departSpeed="11.41" departDelay="0.08" arrival="109.00" arrivalLane="N_out_0" arrivalPos="189.60" arrivalSpeed="13.33" duration="56.00" routeLength="370.88" waitingTime="13.00" waitingCount="1" stopTime="0.00" timeLoss="28.24" rerouteNo="0" devices="vehroute_flow_5_phase1_S_straight.4 tripinfo_flow_5_phase1_S_straight.4" vType="container" speedFactor="0.97" vaporized=""/>
    <tripinfo id="flow_2_phase1_N_left.2" depart="66.00" departLane="N_in_1" departPos="168.21" departSpeed="12.13" departDelay="0.64" arrival="109.00" arrivalLane="E_out_1" arrivalPos="189.60" arrivalSpeed="14.58" duration="43.00" routeLength="230.34" waitingTime="18.00" waitingCount="2" stopTime="0.00" timeLoss="26.85" rerouteNo="0" devices="vehroute_flow_2_phase1_N_left.2 tripinfo_flow_2_phase1_N_left.2" vType="emergency" speedFactor="1.10" vaporized=""/>
    <tripinfo id="flow_1_phase1_N_straight.5" depart="68.00" departLane="N_in_1" departPos="29.88" departSpeed="10.05" departDelay="0.42" arrival="110.00" arrivalLane="S_out_0" arrivalPos="189.60" arrivalSpeed="12.34" duration="42.00" routeLength="370.12" waitingTime="1.00" waitingCount="1" stopTime="0.00" timeLoss="12.02" rerouteNo="0" devices="vehroute_flow_1_phase1_N_straight.5 tripinfo_flow_1_phase1_N_straight.5" vType="moto" speedFactor="0.90" vaporized=""/>
    <tripinfo id="flow_9_phase1_E_straight.5" depart="65.00" departLane="E_in_1" departPos="121.56" departSpeed="1.42" departDelay="0.62" arrival="115.00" arrivalLane="W_out_0" arrivalPos="189.60" arrivalSpeed="12.77" duration="50.00" routeLength="278.44" waitingTime="14.00" waitingCount="2" stopTime="0.00" timeLoss="29.16" rerouteNo="0" devices="vehroute_flow_9_phase1_E_straight.5 tripinfo_flow_9_phase1_E_straight.5" vType="moto" speedFactor="1.00" vaporized=""/>
    <tripinfo id="flow_13_phase1_W_straight.3" depart="41.00" departLane="E_in_0" departPos="91.01" departSpeed="5.41" departDelay="0.85" arrival="116.00" arrivalLane="S_out_1" arrivalPos="189.60" arrivalSpeed="14.39" duration="75.00" routeLength="307.54" waitingTime="23.00" waitingCount="3" stopTime="0.00" timeLoss="52.53" rerouteNo="0" devices="vehroute_flow_13_phase1_W_straight.3 tripinfo_flow_13_phase1_W_straight.3" vType="car" speedFactor="1.05" vaporized=""/>
    <tripinfo id="flow_6_phase1_S_left.2" depart="67.00" departLane="S_in_0" departPos="92.42" departSpeed="12.36" departDelay="0.10" arrival="116.00" arrivalLane="W_out_1" arrivalPos="189.60" arrivalSpeed="12.10" duration="49.00" routeLength="306.13" waitingTime="7.00" waitingCount="1" stopTime="0.00" timeLoss="22.66" rerouteNo="0" devices="vehroute_flow_6_phase1_S_left.2 tripinfo_flow_6_phase1_S_left.2" vType="truck" speedFactor="0.89" vaporized=""/>
    <tripinfo id="flow_14_phase1_W_left.2" depart="69.00" departLane="W_in_0" departPos="42.85" departSpeed="1.22" departDelay="0.06" arrival="119.00" arrivalLane="N_out_1" arrivalPos="189.60" arrivalSpeed="11.25" duration="50.00" routeLength="355.70" waitingTime="11.00" waitingCount="2" stopTime="0.00" timeLoss="20.59" rerouteNo="0" devices="vehroute_flow_14_phase1_W_left.2 tripinfo_flow_14_phase1_W_left.2" vType="car" speedFactor="0.90" vaporized=""/>
    <tripinfo id="flow_13_phase1_W_straight.4" depart="54.00" departLane="E_in_0" departPos="125.76" departSpeed="4.16" departDelay="0.46" arrival="122.00" arrivalLane="S_out_1" arrivalPos="189.60" arrivalSpeed="12.05" duration="68.00" routeLength="272.79" waitingTime="21.00" waitingCount="2" stopTime="0.00" timeLoss="43.91" rerouteNo="0" devices="vehroute_flow_13_phase1_W_straight.4 tripinfo_flow_13_phase1_W_straight.4" vType="bus" speedFactor="0.87" vaporized=""/>
    <tripinfo id="flow_13_phase1_W_straight.6" depart="81.00" departLane="E_in_0" departPos="178.36" departSpeed="3.23" departDelay="0.70" arrival="124.00" arrivalLane="S_out_1" arrivalPos="189.60" arrivalSpeed="12.29" duration="43.00" routeLength="220.19" waitingTime="17.00" waitingCount="3" stopTime="0.00" timeLoss="25.74" rerouteNo="0" devices="vehroute_flow_13_phase1_W_straight.6 tripinfo_flow_13_phase1_W_straight.6" vType="car" speedFactor="0.98" vaporized=""/>
    <tripinfo id="flow_5_phase1_S_straight.6" depart="80.00" departLane="S_in_1" departPos="88.32" departSpeed="12.99" departDelay="0.62" arrival="127.00" arrivalLane="N_out_0" arrivalPos="189.60" arrivalSpeed="15.26" duration="47.00" routeLength="311.68" waitingTime="12.00" waitingCount="1" stopTime="0.00" timeLoss="25.88" rerouteNo="0" devices="vehroute_flow_5_phase1_S_straight.6 tripinfo_flow_5_phase1_S_straight.6" vType="moto" speedFactor="1.10" vaporized=""/>
    <tripinfo id="flow_1_phase1_N_straight.6" depart="82.00" departLane="N_in_1" departPos="107.80" departSpeed="12.50" departDelay="0.90" arrival="127.00" arrivalLane="S_out_0" arrivalPos="189.60" arrivalSpeed="12.49" duration="45.00" routeLength="292.20" waitingTime="15.00" waitingCount="2" stopTime="0.00" timeLoss="23.22" rerouteNo="0" devices="vehroute_flow_1_phase1_N_straight.6 tripinfo_flow_1_phase1_N_straight.6" vType="car" speedFactor="0.98" vaporized=""/>
    <tripinfo id="flow_1_phase1_N_straight.7" depart="95.00" departLane="N_in_1" departPos="111.57" departSpeed="0.11" departDelay="0.39" arrival="127.00" arrivalLane="S_out_1" arrivalPos="189.60" arrivalSpeed="14.49" duration="32.00" routeLength="288.43" waitingTime="2.00" waitingCount="1" stopTime="0.00" timeLoss="12.05" rerouteNo="0" devices="vehroute_flow_1_phase1_N_straight.7 tripinfo_flow_1_phase1_N_straight.7" vType="moto" speedFactor="1.06" vaporized=""/>
    <tripinfo id="flow_7_phase1_S_right.3" depart="98.00" departLane="S_in_0" departPos="150.32" departSpeed="6.39" departDelay="0.52" arrival="127.00" arrivalLane="E_out_0" arrivalPos="189.60" arrivalSpeed="14.78" duration="29.00" routeLength="237.91" waitingTime="4.00" waitingCount="1" stopTime="0.00" timeLoss="12.30" rerouteNo="0" devices="vehroute_flow_7_phase1_S_right.3 tripinfo_flow_7_phase1_S_right.3" vType="moto" speedFactor="1.07" vaporized=""/>
    <tripinfo id="flow_3_phase1_N_right.3" depart="103.00" departLane="N_in_0" departPos="50.11" departSpeed="4.64" departDelay="0.45" arrival="133.00" arrivalLane="W_out_0" arrivalPos="189.60" arrivalSpeed="12.31" duration="30.00" routeLength="338.12" waitingTime="0.00" waitingCount="0" stopTime="0.00" timeLoss="3.80" rerouteNo="0" devices="vehroute_flow_3_phase1_N_right.3 tripinfo_flow_3_phase1_N_right.3" vType="moto" speedFactor="0.96" vaporized=""/>
    <tripinfo id="flow_16_phase1_W_uturn.1" depart="67.00" departLane="S_in_1" departPos="84.30" departSpeed="10.44" departDelay="0.80" arrival="136.00" arrivalLane="S_out_1" arrivalPos="189.60" arrivalSpeed="13.67" duration="69.00" routeLength="299.57" waitingTime="23.00" waitingCount="3" stopTime="0.00" timeLoss="46.61" rerouteNo="0" devices="vehroute_flow_16_phase1_W_uturn.1 tripinfo_flow_16_phase1_W_uturn.1" vType="moto" speedFactor="1.04" vaporized=""/>
    <tripinfo id="flow_2_phase1_N_left.3" depart="99.00" departLane="N_in_1" departPos="20.79" departSpeed="4.87" departDelay="0.96" arrival="138.00" arrivalLane="E_out_1" arrivalPos="189.60" arrivalSpeed="11.24" duration="39.00" routeLength="377.76" waitingTime="0.00" waitingCount="0" stopTime="0.00" timeLoss="7.34" rerouteNo="0" devices="vehroute_flow_2_phase1_N_left.3 tripinfo_flow_2_phase1_N_left.3" vType="moto" speedFactor="0.89" vaporized=""/>
    <tripinfo id="flow_10_phase1_E_left.2" depart="67.00" departLane="E_in_0" departPos="63.10" departSpeed="11.63" departDelay="0.00" arrival="139.00" arrivalLane="S_out_1" arrivalPos="189.60" arrivalSpeed="14.21" duration="72.00" routeLength="335.45" waitingTime="23.00" waitingCount="2" stopTime="0.00" timeLoss="48.71" rerouteNo="0" devices="vehroute_flow_10_phase1_E_left.2 tripinfo_flow_10_phase1_E_left.2" vType="moto" speedFactor="1.07" vaporized=""/>
    <tripinfo id="flow_15_phase1_W_right.2" depart="66.00" departLane="E_in_1" departPos="2.21" departSpeed="0.01" departDelay="0.32" arrival="141.00" arrivalLane="N_out_0" arrivalPos="189.60" arrivalSpeed="11.26" duration="75.00" routeLength="386.02" waitingTime="27.00" waitingCount="3" stopTime="0.00" timeLoss="42.93" rerouteNo="0" devices="vehroute_flow_15_phase1_W_right.2 tripinfo_flow_15_phase1_W_right.2" vType="moto" speedFactor="0.89" vaporized=""/>