<?xml version="1.0" encoding="UTF-8"?>

<!-- generated on 2025-12-08 21:45:07 by Eclipse SUMO sumo Version 1.18.0
<configuration xmlns:xsi="http://www.w3.org/2001/XMLSchema-instance" xsi:noNamespaceSchemaLocation="http://sumo.dlr.de/xsd/sumoConfiguration.xsd">

    <input>
        <net-file value="nets/60p2k/net.net.xml"/>
        <route-files value="nets/60p2k/route_temp_281_124147880884016_33742306.rou.xml"/>
    </input>

    <output>
        <summary-output value="result_ddqn_1.9_0.4/summary_ep_14.xml"/>
        <tripinfo-output value="result_ddqn_1.9_0.4/tripinfo_ep_14.xml"/>
        <vehroute-output value="result_ddqn_1.9_0.4/vehroute_ep_14.xml"/>
    </output>

    <time>
        <begin value="0"/>
    </time>

    <report>
        <verbose value="true"/>
        <no-warnings value="true"/>
        <no-step-log value="true"/>
    </report>

    <traci_server>
        <remote-port value="53403"/>
    </traci_server>

    <gui_only>
        <gui-settings-file value="nets/60p2k/gui-settings.xml"/>
        <quit-on-end value="true"/>
    </gui_only>

</configuration>
-->

<tripinfos xmlns:xsi="http://www.w3.org/2001/XMLSchema-instance" xsi:noNamespaceSchemaLocation="http://sumo.dlr.de/xsd/tripinfo_file.xsd">
    <tripinfo id="flow_5_phase1_S_straight.0" depart="0.00" departLane="S_in_1" departPos="107.37" departSpeed="7.21" departDelay="0.00" arrival="24.00" arrivalLane="E_out_0" arrivalPos="189.60" arrivalSpeed="15.15" duration="24.00" routeLength="280.86" waitingTime="0.00" waitingCount="0" stopTime="0.00" timeLoss="5.19" rerouteNo="0" devices="vehroute_flow_5_phase1_S_straight.0 tripinfo_flow_5_phase1_S_straight.0" vType="moto" speedFactor="1.15" vaporized=""/>
    <tripinfo id="flow_8_phase1_S_uturn.0" depart="0.00" departLane="S_in_0" departPos="120.11" departSpeed="4.48" departDelay="0.00" arrival="24.00" arrivalLane="S_out_1" arrivalPos="189.60" arrivalSpeed="13.35" duration="24.00" routeLength="263.76" waitingTime="0.00" waitingCount="0" stopTime="0.00" timeLoss="4.93" rerouteNo="0" devices="vehroute_flow_8_phase1_S_uturn.0 tripinfo_flow_8_phase1_S_uturn.0" vType="moto" speedFactor="1.05" vaporized=""/>
    <tripinfo id="flow_6_phase1_S_left.0" depart="0.00" departLane="S_in_1" departPos="166.01" departSpeed="0.74" departDelay="0.00" arrival="25.00" arrivalLane="W_out_1" arrivalPos="189.60" arrivalSpeed="11.57" duration="25.00" routeLength="232.54" waitingTime="0.00" waitingCount="0" stopTime="0.00" timeLoss="4.30" rerouteNo="0" devices="vehroute_flow_6_phase1_S_left.0 tripinfo_flow_6_phase1_S_left.0" vType="moto" speedFactor="0.88" vaporized=""/>
    <tripinfo id="flow_11_phase1_E_right.0" depart="0.00" departLane="N_in_1" departPos="144.95" departSpeed="4.02" departDelay="0.00" arrival="26.00" arrivalLane="E_out_1" arrivalPos="189.60" arrivalSpeed="13.23" duration="26.00" routeLength="253.60" waitingTime="0.00" waitingCount="0" stopTime="0.00" timeLoss="5.62" rerouteNo="0" devices="vehroute_flow_11_phase1_E_right.0 tripinfo_flow_11_phase1_E_right.0" vType="bus" speedFactor="0.96" vaporized=""/>
    <tripinfo id="flow_4_phase1_N_uturn.0" depart="0.00" departLane="N_in_1" departPos="127.60" departSpeed="0.08" departDelay="0.00" arrival="29.00" arrivalLane="N_out_1" arrivalPos="189.60" arrivalSpeed="12.70" duration="29.00" routeLength="256.27" waitingTime="0.00" waitingCount="0" stopTime="0.00" timeLoss="8.07" rerouteNo="0" devices="vehroute_flow_4_phase1_N_uturn.0 tripinfo_flow_4_phase1_N_uturn.0" vType="car" speedFactor="0.92" vaporized=""/>
    <tripinfo id="flow_3_phase1_N_right.0" depart="0.00" departLane="W_in_0" departPos="103.38" departSpeed="3.75" departDelay="0.00" arrival="35.00" arrivalLane="E_out_0" arrivalPos="189.60" arrivalSpeed="14.45" duration="35.00" routeLength="296.62" waitingTime="8.00" waitingCount="1" stopTime="0.00" timeLoss="15.03" rerouteNo="0" devices="vehroute_flow_3_phase1_N_right.0 tripinfo_flow_3_phase1_N_right.0" vType="car" speedFactor="1.09" vaporized=""/>
    <tripinfo id="flow_10_phase1_E_left.0" depart="0.00" departLane="N_in_0" departPos="44.88" departSpeed="7.69" departDelay="0.00" arrival="35.00" arrivalLane="N_out_1" arrivalPos="189.60" arrivalSpeed="13.61" duration="35.00" routeLength="338.99" waitingTime="0.00" waitingCount="0" stopTime="0.00" timeLoss="9.85" rerouteNo="0" devices="vehroute_flow_10_phase1_E_left.0 tripinfo_flow_10_phase1_E_left.0" vType="truck" speedFactor="1.02" vaporized=""/>
    <tripinfo id="flow_9_phase1_E_straight.1" depart="13.00" departLane="E_in_0" departPos="131.13" departSpeed="9.54" departDelay="0.12" arrival="35.00" arrivalLane="W_out_1" arrivalPos="189.60" arrivalSpeed="15.86" duration="22.00" routeLength="268.87" waitingTime="0.00" waitingCount="0" stopTime="0.00" timeLoss="4.83" rerouteNo="0" devices="vehroute_flow_9_phase1_E_straight.1 tripinfo_flow_9_phase1_E_straight.1" vType="moto" speedFactor="1.16" vaporized=""/>
    <tripinfo id="flow_12_phase1_E_uturn.0" depart="0.00" departLane="E_in_0" departPos="5.65" departSpeed="13.76" departDelay="0.00" arrival="36.00" arrivalLane="E_out_1" arrivalPos="189.60" arrivalSpeed="14.20" duration="36.00" routeLength="378.22" waitingTime="0.00" waitingCount="0" stopTime="0.00" timeLoss="7.79" rerouteNo="0" devices="vehroute_flow_12_phase1_E_uturn.0 tripinfo_flow_12_phase1_E_uturn.0" vType="moto" speedFactor="1.03" vaporized=""/>
    <tripinfo id="flow_9_phase1_E_straight.0" depart="0.00" departLane="E_in_0" departPos="168.29" departSpeed="9.83" departDelay="0.00" arrival="41.00" arrivalLane="W_out_0" arrivalPos="189.60" arrivalSpeed="12.08" duration="41.00" routeLength="231.71" waitingTime="12.00" waitingCount="1" stopTime="0.00" timeLoss="21.88" rerouteNo="0" devices="vehroute_flow_9_phase1_E_straight.0 tripinfo_flow_9_phase1_E_straight.0" vType="truck" speedFactor="0.90" vaporized=""/>
    <tripinfo id="flow_14_phase1_W_left.0" depart="0.00" departLane="W_in_1" departPos="182.88" departSpeed="5.61" departDelay="0.00" arrival="41.00" arrivalLane="N_out_1" arrivalPos="189.60" arrivalSpeed="13.67" duration="41.00" routeLength="215.67" waitingTime="15.00" waitingCount="2" stopTime="0.00" timeLoss="24.73" rerouteNo="0" devices="vehroute_flow_14_phase1_W_left.0 tripinfo_flow_14_phase1_W_left.0" vType="moto" speedFactor="1.01" vaporized=""/>
    <tripinfo id="flow_16_phase1_W_uturn.0" depart="0.00" departLane="W_in_0" departPos="126.68" departSpeed="11.71" departDelay="0.00" arrival="41.00" arrivalLane="W_out_1" arrivalPos="189.60" arrivalSpeed="13.50" duration="41.00" routeLength="257.19" waitingTime="13.00" waitingCount="2" stopTime="0.00" timeLoss="21.37" rerouteNo="0" devices="vehroute_flow_16_phase1_W_uturn.0 tripinfo_flow_16_phase1_W_uturn.0" vType="moto" speedFactor="1.04" vaporized=""/>
    <tripinfo id="flow_15_phase1_W_right.0" depart="0.00" departLane="E_in_0" departPos="108.38" departSpeed="2.63" departDelay="0.00" arrival="42.00" arrivalLane="N_out_0" arrivalPos="189.60" arrivalSpeed="11.58" duration="42.00" routeLength="279.85" waitingTime="9.00" waitingCount="1" stopTime="0.00" timeLoss="16.70" rerouteNo="0" devices="vehroute_flow_15_phase1_W_right.0 tripinfo_flow_15_phase1_W_right.0" vType="moto" speedFactor="0.85" vaporized=""/>
    <tripinfo id="flow_2_phase1_N_left.0" depart="0.00" departLane="N_in_1" departPos="8.27" departSpeed="8.33" departDelay="0.00" arrival="49.00" arrivalLane="E_out_1" arrivalPos="189.60" arrivalSpeed="13.19" duration="49.00" routeLength="390.28" waitingTime="10.00" waitingCount="1" stopTime="0.00" timeLoss="20.26" rerouteNo="0" devices="vehroute_flow_2_phase1_N_left.0 tripinfo_flow_2_phase1_N_left.0" vType="moto" speedFactor="1.02" vaporized=""/>
    <tripinfo id="flow_1_phase1_N_straight.1" depart="14.00" departLane="N_in_1" departPos="58.36" departSpeed="11.64" departDelay="0.48" arrival="53.00" arrivalLane="S_out_1" arrivalPos="189.60" arrivalSpeed="11.22" duration="39.00" routeLength="341.64" waitingTime="3.00" waitingCount="1" stopTime="0.00" timeLoss="10.73" rerouteNo="0" devices="vehroute_flow_1_phase1_N_straight.1 tripinfo_flow_1_phase1_N_straight.1" vType="moto" speedFactor="0.87" vaporized=""/>
    <tripinfo id="flow_5_phase1_S_straight.1" depart="14.00" departLane="S_in_1" departPos="31.93" departSpeed="9.28" departDelay="0.77" arrival="55.00" arrivalLane="E_out_1" arrivalPos="189.60" arrivalSpeed="15.50" duration="41.00" routeLength="356.30" waitingTime="5.00" waitingCount="1" stopTime="0.00" timeLoss="18.00" rerouteNo="0" devices="vehroute_flow_5_phase1_S_straight.1 tripinfo_flow_5_phase1_S_straight.1" vType="moto" speedFactor="1.19" vaporized=""/>
    <tripinfo id="flow_1_phase1_N_straight.0" depart="0.00" departLane="N_in_0" departPos="8.62" departSpeed="8.51" departDelay="0.00" arrival="56.00" arrivalLane="S_out_0" arrivalPos="189.60" arrivalSpeed="11.36" duration="56.00" routeLength="391.38" waitingTime="11.00" waitingCount="1" stopTime="0.00" timeLoss="22.41" rerouteNo="0" devices="vehroute_flow_1_phase1_N_straight.0 tripinfo_flow_1_phase1_N_straight.0" vType="bus" speedFactor="0.86" vaporized=""/>
    <tripinfo id="flow_1_phase1_N_straight.2" depart="28.00" departLane="N_in_1" departPos="39.28" departSpeed="7.32" departDelay="0.97" arrival="58.00" arrivalLane="S_out_1" arrivalPos="189.60" arrivalSpeed="12.55" duration="30.00" routeLength="360.72" waitingTime="0.00" waitingCount="0" stopTime="0.00" timeLoss="1.79" rerouteNo="0" devices="vehroute_flow_1_phase1_N_straight.2 tripinfo_flow_1_phase1_N_straight.2" vType="moto" speedFactor="0.93" vaporized=""/>
    <tripinfo id="flow_7_phase1_S_right.0" depart="0.00" departLane="S_in_0" departPos="8.76" departSpeed="8.07" departDelay="0.00" arrival="59.00" arrivalLane="E_out_0" arrivalPos="189.60" arrivalSpeed="11.51" duration="59.00" routeLength="379.47" waitingTime="12.00" waitingCount="1" stopTime="0.00" timeLoss="25.60" rerouteNo="0" devices="vehroute_flow_7_phase1_S_right.0 tripinfo_flow_7_phase1_S_right.0" vType="container" speedFactor="0.85" vaporized=""/>
    <tripinfo id="flow_9_phase1_E_straight.2" depart="26.00" departLane="E_in_1" departPos="103.67" departSpeed="3.85" departDelay="0.25" arrival="62.00" arrivalLane="W_out_0" arrivalPos="189.60" arrivalSpeed="13.61" duration="36.00" routeLength="296.33" waitingTime="6.00" waitingCount="1" stopTime="0.00" timeLoss="14.17" rerouteNo="0" devices="vehroute_flow_9_phase1_E_straight.2 tripinfo_flow_9_phase1_E_straight.2" vType="moto" speedFactor="0.99" vaporized=""/>
    <tripinfo id="flow_15_phase1_W_right.1" depart="33.00" departLane="E_in_1" departPos="97.23" departSpeed="5.84" departDelay="0.16" arrival="62.00" arrivalLane="N_out_0" arrivalPos="189.60" arrivalSpeed="14.68" duration="29.00" routeLength="291.00" waitingTime="2.00" waitingCount="1" stopTime="0.00" timeLoss="8.68" rerouteNo="0" devices="vehroute_flow_15_phase1_W_right.1 tripinfo_flow_15_phase1_W_right.1" vType="moto" speedFactor="1.08" vaporized=""/>
    <tripinfo id="flow_3_phase1_N_right.1" depart="35.00" departLane="W_in_0" departPos="166.00" departSpeed="1.28" departDelay="0.82" arrival="64.00" arrivalLane="E_out_0" arrivalPos="189.60" arrivalSpeed="11.11" duration="29.00" routeLength="234.00" waitingTime="1.00" waitingCount="1" stopTime="0.00" timeLoss="9.69" rerouteNo="0" devices="vehroute_flow_3_phase1_N_right.1 tripinfo_flow_3_phase1_N_right.1" vType="moto" speedFactor="0.88" vaporized=""/>
    <tripinfo id="flow_9_phase1_E_straight.3" depart="39.00" departLane="E_in_0" departPos="86.42" departSpeed="8.41" departDelay="0.37" arrival="68.00" arrivalLane="W_out_0" arrivalPos="189.60" arrivalSpeed="11.80" duration="29.00" routeLength="313.58" waitingTime="0.00" waitingCount="0" stopTime="0.00" timeLoss="1.84" rerouteNo="0" devices="vehroute_flow_9_phase1_E_straight.3 tripinfo_flow_9_phase1_E_straight.3" vType="bus" speedFactor="0.85" vaporized=""/>
    <tripinfo id="flow_5_phase1_S_straight.2" depart="27.00" departLane="S_in_0" departPos="33.93" departSpeed="0.90" departDelay="0.54" arrival="75.00" arrivalLane="E_out_0" arrivalPos="189.60" arrivalSpeed="12.48" duration="48.00" routeLength="354.30" waitingTime="10.00" waitingCount="1" stopTime="0.00" timeLoss="20.32" rerouteNo="0" devices="vehroute_flow_5_phase1_S_straight.2 tripinfo_flow_5_phase1_S_straight.2" vType="moto" speedFactor="0.96" vaporized=""/>
    <tripinfo id="flow_1_phase1_N_straight.3" depart="41.00" departLane="N_in_0" departPos="132.62" departSpeed="5.49" departDelay="0.45" arrival="77.00" arrivalLane="S_out_0" arrivalPos="189.60" arrivalSpeed="14.72" duration="36.00" routeLength="267.38" waitingTime="5.00" waitingCount="1" stopTime="0.00" timeLoss="18.41" rerouteNo="0" devices="vehroute_flow_1_phase1_N_straight.3 tripinfo_flow_1_phase1_N_straight.3" vType="moto" speedFactor="1.20" vaporized=""/>
    <tripinfo id="flow_13_phase1_W_straight.0" depart="0.00" departLane="W_in_0" departPos="24.53" departSpeed="3.79" departDelay="0.00" arrival="80.00" arrivalLane="N_out_0" arrivalPos="189.60" arrivalSpeed="11.42" duration="80.00" routeLength="374.02" waitingTime="20.00" waitingCount="3" stopTime="0.00" timeLoss="46.15" rerouteNo="0" devices="vehroute_flow_13_phase1_W_straight.0 tripinfo_flow_13_phase1_W_straight.0" vType="container" speedFactor="0.82" vaporized=""/>
    <tripinfo id="flow_11_phase1_E_right.1" depart="33.00" departLane="N_in_0" departPos="80.24" departSpeed="9.78" departDelay="0.51" arrival="80.00" arrivalLane="E_out_1" arrivalPos="189.60" arrivalSpeed="14.26" duration="47.00" routeLength="318.31" waitingTime="15.00" waitingCount="2" stopTime="0.00" timeLoss="23.80" rerouteNo="0" devices="vehroute_flow_11_phase1_E_right.1 tripinfo_flow_11_phase1_E_right.1" vType="moto" speedFactor="1.04" vaporized=""/>
    <tripinfo id="flow_2_phase1_N_left.1" depart="33.00" departLane="N_in_0" departPos="15.17" departSpeed="0.73" departDelay="0.32" arrival="81.00" arrivalLane="E_out_1" arrivalPos="189.60" arrivalSpeed="14.34" duration="48.00" routeLength="383.38" waitingTime="9.00" waitingCount="2" stopTime="0.00" timeLoss="22.86" rerouteNo="0" devices="vehroute_flow_2_phase1_N_left.1 tripinfo_flow_2_phase1_N_left.1" vType="moto" speedFactor="1.12" vaporized=""/>
    <tripinfo id="flow_1_phase1_N_straight.4" depart="55.00" departLane="N_in_0" departPos="128.04" departSpeed="4.99" departDelay="0.94" arrival="81.00" arrivalLane="S_out_0" arrivalPos="189.60" arrivalSpeed="12.74" duration="26.00" routeLength="271.96" waitingTime="0.00" waitingCount="0" stopTime="0.00" timeLoss="4.68" rerouteNo="0" devices="vehroute_flow_1_phase1_N_straight.4 tripinfo_flow_1_phase1_N_straight.4" vType="truck" speedFactor="0.92" vaporized=""/>
    <tripinfo id="flow_5_phase1_S_straight.3" depart="40.00" departLane="S_in_0" departPos="56.18" departSpeed="8.58" departDelay="0.31" arrival="83.00" arrivalLane="E_out_1" arrivalPos="189.60" arrivalSpeed="14.51" duration="43.00" routeLength="332.05" waitingTime="5.00" waitingCount="1" stopTime="0.00" timeLoss="19.96" rerouteNo="0" devices="vehroute_flow_5_phase1_S_straight.3 tripinfo_flow_5_phase1_S_straight.3" vType="moto" speedFactor="1.08" vaporized=""/>
    <tripinfo id="flow_6_phase1_S_left.1" depart="34.00" departLane="S_in_1" departPos="79.10" departSpeed="8.50" departDelay="0.55" arrival="84.00" arrivalLane="W_out_1" arrivalPos="189.60" arrivalSpeed="13.58" duration="50.00" routeLength="319.45" waitingTime="17.00" waitingCount="2" stopTime="0.00" timeLoss="27.05" rerouteNo="0" devices="vehroute_flow_6_phase1_S_left.1 tripinfo_flow_6_phase1_S_left.1" vType="moto" speedFactor="1.05" vaporized=""/>
    <tripinfo id="flow_7_phase1_S_right.1" depart="33.00" departLane="S_in_0" departPos="54.99" departSpeed="3.84" departDelay="0.51" arrival="86.00" arrivalLane="E_out_0" arrivalPos="189.60" arrivalSpeed="10.32" duration="53.00" routeLength="333.24" waitingTime="6.00" waitingCount="1" stopTime="0.00" timeLoss="20.87" rerouteNo="0" devices="vehroute_flow_7_phase1_S_right.1 tripinfo_flow_7_phase1_S_right.1" vType="container" speedFactor="0.78" vaporized=""/>
    <tripinfo id="flow_5_phase1_S_straight.4" depart="53.00" departLane="S_in_0" departPos="26.76" departSpeed="9.62" departDelay="0.08" arrival="89.00" arrivalLane="E_out_0" arrivalPos="189.60" arrivalSpeed="13.06" duration="36.00" routeLength="361.47" waitingTime="0.00" waitingCount="0" stopTime="0.00" timeLoss="7.68" rerouteNo="0" devices="vehroute_flow_5_phase1_S_straight.4 tripinfo_flow_5_phase1_S_straight.4" vType="container" speedFactor="0.97" vaporized=""/>
    <tripinfo id="flow_2_phase1_N_left.2" depart="66.00" departLane="N_in_1" departPos="112.37" departSpeed="10.40" departDelay="0.64" arrival="89.00" arrivalLane="E_out_1" arrivalPos="189.60" arrivalSpeed="15.25" duration="23.00" routeLength="286.18" waitingTime="0.00" waitingCount="0" stopTime="0.00" timeLoss="3.64" rerouteNo="0" devices="vehroute_flow_2_phase1_N_left.2 tripinfo_flow_2_phase1_N_left.2" vType="emergency" speedFactor="1.10" vaporized=""/>
    <tripinfo id="flow_10_phase1_E_left.2" depart="67.00" departLane="N_in_1" departPos="172.37" departSpeed="0.17" departDelay="0.00" arrival="89.00" arrivalLane="N_out_1" arrivalPos="189.60" arrivalSpeed="14.14" duration="22.00" routeLength="211.50" waitingTime="0.00" waitingCount="0" stopTime="0.00" timeLoss="6.20" rerouteNo="0" devices="vehroute_flow_10_phase1_E_left.2 tripinfo_flow_10_phase1_E_left.2" vType="moto" speedFactor="1.07" vaporized=""/>
    <tripinfo id="flow_10_phase1_E_left.1" depart="34.00" departLane="N_in_0" departPos="4.52" departSpeed="5.87" departDelay="0.50" arrival="90.00" arrivalLane="N_out_0" arrivalPos="189.60" arrivalSpeed="10.11" duration="56.00" routeLength="379.35" waitingTime="5.00" waitingCount="2" stopTime="0.00" timeLoss="18.84" rerouteNo="0" devices="vehroute_flow_10_phase1_E_left.1 tripinfo_flow_10_phase1_E_left.1" vType="truck" speedFactor="0.77" vaporized=""/>
    <tripinfo id="flow_11_phase1_E_right.2" depart="65.00" departLane="N_in_0" departPos="52.57" departSpeed="9.36" departDelay="0.02" arrival="91.00" arrivalLane="E_out_1" arrivalPos="189.60" arrivalSpeed="14.63" duration="26.00" routeLength="345.98" waitingTime="0.00" waitingCount="0" stopTime="0.00" timeLoss="3.54" rerouteNo="0" devices="vehroute_flow_11_phase1_E_right.2 tripinfo_flow_11_phase1_E_right.2" vType="moto" speedFactor="1.14" vaporized=""/>
    <tripinfo id="flow_5_phase1_S_straight.5" depart="67.00" departLane="S_in_1" departPos="89.17" departSpeed="11.39" departDelay="0.85" arrival="92.00" arrivalLane="E_out_0" arrivalPos="189.60" arrivalSpeed="13.18" duration="25.00" routeLength="299.06" waitingTime="0.00" waitingCount="0" stopTime="0.00" timeLoss="3.10" rerouteNo="0" devices="vehroute_flow_5_phase1_S_straight.5 tripinfo_flow_5_phase1_S_straight.5" vType="moto" speedFactor="1.03" vaporized=""/>
    <tripinfo id="flow_1_phase1_N_straight.5" depart="68.00" departLane="N_in_0" departPos="87.76" departSpeed="9.83" departDelay="0.42" arrival="95.00" arrivalLane="S_out_0" arrivalPos="189.60" arrivalSpeed="11.60" duration="27.00" routeLength="312.24" waitingTime="0.00" waitingCount="0" stopTime="0.00" timeLoss="1.34" rerouteNo="0" devices="vehroute_flow_1_phase1_N_straight.5 tripinfo_flow_1_phase1_N_straight.5" vType="moto" speedFactor="0.90" vaporized=""/>
    <tripinfo id="flow_8_phase1_S_uturn.1" depart="66.00" departLane="S_in_1" departPos="162.40" departSpeed="1.34" departDelay="0.07" arrival="99.00" arrivalLane="S_out_1" arrivalPos="189.60" arrivalSpeed="12.40" duration="33.00" routeLength="221.47" waitingTime="2.00" waitingCount="1" stopTime="0.00" timeLoss="14.31" rerouteNo="0" devices="vehroute_flow_8_phase1_S_uturn.1 tripinfo_flow_8_phase1_S_uturn.1" vType="truck" speedFactor="0.94" vaporized=""/>
    <tripinfo id="flow_9_phase1_E_straight.4" depart="52.00" departLane="E_in_1" departPos="135.04" departSpeed="3.72" departDelay="0.49" arrival="103.00" arrivalLane="W_out_0" arrivalPos="189.60" arrivalSpeed="12.67" duration="51.00" routeLength="264.96" waitingTime="17.00" waitingCount="1" stopTime="0.00" timeLoss="30.71" rerouteNo="0" devices="vehroute_flow_9_phase1_E_straight.4 tripinfo_flow_9_phase1_E_straight.4" vType="bus" speedFactor="0.95" vaporized=""/>
    <tripinfo id="flow_9_phase1_E_straight.5" depart="65.00" departLane="E_in_0" departPos="125.76" departSpeed="4.77" departDelay="0.62" arrival="105.00" arrivalLane="W_out_1" arrivalPos="189.60" arrivalSpeed="13.64" duration="40.00" routeLength="274.24" waitingTime="10.00" waitingCount="1" stopTime="0.00" timeLoss="19.44" rerouteNo="0" devices="vehroute_flow_9_phase1_E_straight.5 tripinfo_flow_9_phase1_E_straight.5" vType="moto" speedFactor="1.00" vaporized=""/>
    <tripinfo id="flow_15_phase1_W_right.2" depart="66.00" departLane="E_in_1" departPos="168.21" departSpeed="11.63" departDelay="0.32" arrival="105.00" arrivalLane="N_out_0" arrivalPos="189.60" arrivalSpeed="11.92" duration="39.00" routeLength="220.02" waitingTime="15.00" waitingCount="1" stopTime="0.00" timeLoss="20.05" rerouteNo="0" devices="vehroute_flow_15_phase1_W_right.2 tripinfo_flow_15_phase1_W_right.2" vType="moto" speedFactor="0.89" vaporized=""/>
    <tripinfo id="flow_9_phase1_E_straight.6" depart="78.00" departLane="E_in_0" departPos="69.49" departSpeed="6.31" departDelay="0.74" arrival="105.00" arrivalLane="W_out_0" arrivalPos="189.60" arrivalSpeed="12.90" duration="27.00" routeLength="330.51" waitingTime="0.00" waitingCount="0" stopTime="0.00" timeLoss="3.65" rerouteNo="0" devices="vehroute_flow_9_phase1_E_straight.6 tripinfo_flow_9_phase1_E_straight.6" vType="moto" speedFactor="1.02" vaporized=""/>
    <tripinfo id="flow_13_phase1_W_straight.1" depart="14.00" departLane="W_in_1" departPos="28.79" departSpeed="2.86" departDelay="0.62" arrival="107.00" arrivalLane="N_out_1" arrivalPos="189.60" arrivalSpeed="15.44" duration="93.00" routeLength="369.76" waitingTime="45.00" waitingCount="5" stopTime="0.00" timeLoss="68.29" rerouteNo="0" devices="vehroute_flow_13_phase1_W_straight.1 tripinfo_flow_13_phase1_W_straight.1" vType="car" speedFactor="1.12" vaporized=""/>
    <tripinfo id="flow_12_phase1_E_uturn.1" depart="66.00" departLane="E_in_0" departPos="104.14" departSpeed="10.86" departDelay="0.19" arrival="108.00" arrivalLane="E_out_1" arrivalPos="189.60" arrivalSpeed="12.64" duration="42.00" routeLength="279.73" waitingTime="9.00" waitingCount="1" stopTime="0.00" timeLoss="19.37" rerouteNo="0" devices="vehroute_flow_12_phase1_E_uturn.1 tripinfo_flow_12_phase1_E_uturn.1" vType="moto" speedFactor="0.95" vaporized=""/>
    <tripinfo id="flow_7_phase1_S_right.2" depart="65.00" departLane="S_in_1" departPos="29.12" departSpeed="12.08" departDelay="0.01" arrival="110.00" arrivalLane="E_out_0" arrivalPos="189.60" arrivalSpeed="13.32" duration="45.00" routeLength="359.11" waitingTime="14.00" waitingCount="1" stopTime="0.00" timeLoss="19.35" rerouteNo="0" devices="vehroute_flow_7_phase1_S_right.2 tripinfo_flow_7_phase1_S_right.2" vType="moto" speedFactor="1.03" vaporized=""/>
    <tripinfo id="flow_1_phase1_N_straight.6" depart="82.00" departLane="N_in_0" departPos="43.18" departSpeed="3.08" departDelay="0.90" arrival="111.00" arrivalLane="S_out_0" arrivalPos="189.60" arrivalSpeed="12.64" duration="29.00" routeLength="356.82" waitingTime="0.00" waitingCount="0" stopTime="0.00" timeLoss="2.57" rerouteNo="0" devices="vehroute_flow_1_phase1_N_straight.6 tripinfo_flow_1_phase1_N_straight.6" vType="car" speedFactor="0.98" vaporized=""/>
    <tripinfo id="flow_5_phase1_S_straight.6" depart="80.00" departLane="S_in_1" departPos="109.89" departSpeed="2.41" departDelay="0.62" arrival="112.00" arrivalLane="E_out_0" arrivalPos="189.60" arrivalSpeed="14.52" duration="32.00" routeLength="278.34" waitingTime="2.00" waitingCount="1" stopTime="0.00" timeLoss="12.77" rerouteNo="0" devices="vehroute_flow_5_phase1_S_straight.6 tripinfo_flow_5_phase1_S_straight.6" vType="moto" speedFactor="1.10" vaporized=""/>
    <tripinfo id="flow_4_phase1_N_uturn.1" depart="67.00" departLane="N_in_0" departPos="31.76" departSpeed="11.77" departDelay="0.96" arrival="113.00" arrivalLane="N_out_1" arrivalPos="189.60" arrivalSpeed="12.53" duration="46.00" routeLength="352.11" waitingTime="12.00" waitingCount="2" stopTime="0.00" timeLoss="17.17" rerouteNo="0" devices="vehroute_flow_4_phase1_N_uturn.1 tripinfo_flow_4_phase1_N_uturn.1" vType="moto" speedFactor="0.94" vaporized=""/>
    <tripinfo id="flow_1_phase1_N_straight.7" depart="95.00" departLane="N_in_1" departPos="150.35" departSpeed="8.40" departDelay="0.39" arrival="113.00" arrivalLane="S_out_1" arrivalPos="189.60" arrivalSpeed="13.88" duration="18.00" routeLength="249.65" waitingTime="0.00" waitingCount="0" stopTime="0.00" timeLoss="1.07" rerouteNo="0" devices="vehroute_flow_1_phase1_N_straight.7 tripinfo_flow_1_phase1_N_straight.7" vType="moto" speedFactor="1.06" vaporized=""/>
    <tripinfo id="flow_5_phase1_S_straight.7" depart="93.00" departLane="S_in_1" departPos="88.32" departSpeed="10.69" departDelay="0.39" arrival="122.00" arrivalLane="E_out_0" arrivalPos="189.60" arrivalSpeed="12.32" duration="29.00" routeLength="299.91" waitingTime="0.00" waitingCount="0" stopTime="0.00" timeLoss="3.72" rerouteNo="0" devices="vehroute_flow_5_phase1_S_straight.7 tripinfo_flow_5_phase1_S_straight.7" vType="bus" speedFactor="0.90" vaporized=""/>
    <tripinfo id="flow_6_phase1_S_left.2" depart="67.00" departLane="S_in_1" departPos="124.88" departSpeed="0.01" departDelay="0.10" arrival="123.00" arrivalLane="W_out_1" arrivalPos="189.60" arrivalSpeed="11.94" duration="56.00" routeLength="273.67" waitingTime="10.00" waitingCount="2" stopTime="0.00" timeLoss="32.88" rerouteNo="0" devices="vehroute_flow_6_phase1_S_left.2 tripinfo_flow_6_phase1_S_left.2" vType="truck" speedFactor="0.89" vaporized=""/>
    <tripinfo id="flow_7_phase1_S_right.3" depart="98.00" departLane="S_in_0" departPos="107.99" departSpeed="1.26" departDelay="0.52" arrival="124.00" arrivalLane="E_out_0" arrivalPos="189.60" arrivalSpeed="13.89" duration="26.00" routeLength="280.24" waitingTime="0.00" waitingCount="0" stopTime="0.00" timeLoss="6.04" rerouteNo="0" devices="vehroute_flow_7_phase1_S_right.3 tripinfo_flow_7_phase1_S_right.3" vType="moto" speedFactor="1.07" vaporized=""/>
    <tripinfo id="flow_11_phase1_E_right.3" depart="98.00" departLane="N_in_0" departPos="140.51" departSpeed="8.68" departDelay="0.53" arrival="124.00" arrivalLane="E_out_1" arrivalPos="189.60" arrivalSpeed="10.80" duration="26.00" routeLength="258.04" waitingTime="0.00" waitingCount="0" stopTime="0.00" timeLoss="2.47" rerouteNo="0" devices="vehroute_flow_11_phase1_E_right.3 tripinfo_flow_11_phase1_E_right.3" vType="moto" speedFactor="0.83" vaporized=""/>
    <tripinfo id="flow_6_phase1_S_left.3" depart="101.00" departLane="S_in_1" departPos="140.12" departSpeed="12.09" departDelay="0.64" arrival="125.00" arrivalLane="W_out_1" arrivalPos="189.60" arrivalSpeed="15.07" duration="24.00" routeLength="258.43" waitingTime="0.00" waitingCount="0" stopTime="0.00" timeLoss="5.91" rerouteNo="0" devices="vehroute_flow_6_phase1_S_left.3 tripinfo_flow_6_phase1_S_left.3" vType="car" speedFactor="1.10" vaporized=""/>
    <tripinfo id="flow_1_phase1_N_straight.8" depart="109.00" departLane="N_in_1" departPos="177.75" departSpeed="4.19" departDelay="0.87" arrival="129.00" arrivalLane="S_out_1" arrivalPos="189.60" arrivalSpeed="12.90" duration="20.00" routeLength="222.25" waitingTime="0.00" waitingCount="0" stopTime="0.00" timeLoss="2.89" rerouteNo="0" devices="vehroute_flow_1_phase1_N_straight.8 tripinfo_flow_1_phase1_N_straight.8" vType="moto" speedFactor="0.97" vaporized=""/>
    <tripinfo id="flow_2_phase1_N_left.3" depart="99.00" departLane="N_in_1" departPos="86.40" departSpeed="1.47" departDelay="0.96" arrival="130.00" arrivalLane="E_out_1" arrivalPos="189.60" arrivalSpeed="11.25" duration="31.00" routeLength="312.15" waitingTime="0.00" waitingCount="0" stopTime="0.00" timeLoss="4.06" rerouteNo="0" devices="vehroute_flow_2_phase1_N_left.3 tripinfo_flow_2_phase1_N_left.3" vType="moto" speedFactor="0.89" vaporized=""/>
    <tripinfo id="flow_15_phase1_W_right.3" depart="99.00" departLane="E_in_1" departPos="16.13" departSpeed="9.42" departDelay="0.49" arrival="133.00" arrivalLane="N_out_0" arrivalPos="189.60" arrivalSpeed="15.31" duration="34.00" routeLength="372.10" waitingTime="3.00" waitingCount="1" stopTime="0.00" timeLoss="9.90" rerouteNo="0" devices="vehroute_flow_15_phase1_W_right.3 tripinfo_flow_15_phase1_W_right.3" vType="moto" speedFactor="1.17" vaporized=""/>
    <tripinfo id="flow_9_phase1_E_straight.7" depart="91.00" departLane="E_in_0" departPos="60.83" departSpeed="12.89" departDelay="0.86" arrival="134.00" arrivalLane="W_out_0" arrivalPos="189.60" arrivalSpeed="13.63" duration="43.00" routeLength="339.17" waitingTime="11.00" waitingCount="1" stopTime="0.00" timeLoss="18.52" rerouteNo="0" devices="vehroute_flow_9_phase1_E_straight.7 tripinfo_flow_9_phase1_E_straight.7" vType="moto" speedFactor="1.01" vaporized=""/>
    <tripinfo id="flow_9_phase1_E_straight.8" depart="104.00" departLane="E_in_0" departPos="178.62" departSpeed="5.77" departDelay="0.98" arrival="135.00" arrivalLane="W_out_1" arrivalPos="189.60" arrivalSpeed="11.88" duration="31.00" routeLength="221.38" waitingTime="7.00" waitingCount="1" stopTime="0.00" timeLoss="13.97" rerouteNo="0" devices="vehroute_flow_9_phase1_E_straight.8 tripinfo_flow_9_phase1_E_straight.8" vType="moto" speedFactor="0.94" vaporized=""/>
    <tripinfo id="flow_13_phase1_W_straight.2" depart="27.00" departLane="W_in_1" departPos="64.28" departSpeed="4.21" departDelay="0.23" arrival="144.00" arrivalLane="N_out_1" arrivalPos="189.60" arrivalSpeed="13.32" duration="117.00" routeLength="334.27" waitingTime="53.00" waitingCount="7" stopTime="0.00" timeLoss="90.75" rerouteNo="0" devices="vehroute_flow_13_phase1_W_straight.2 tripinfo_flow_13_phase1_W_straight.2" vType="bus" speedFactor="0.97" vaporized=""/>