<?xml version="1.0" encoding="UTF-8"?>

<!-- generated on 2025-12-08 21:47:46 by Eclipse SUMO sumo Version 1.18.0
<configuration xmlns:xsi="http://www.w3.org/2001/XMLSchema-instance" xsi:noNamespaceSchemaLocation="http://sumo.dlr.de/xsd/sumoConfiguration.xsd">

    <input>
        <net-file value="nets/60p2k/net.net.xml"/>
        <route-files value="nets/60p2k/route_temp_281_124147880884016_33742306.rou.xml"/>
    </input>

    <output>
        <summary-output value="result_ddqn_1.9_0.4/summary_ep_20.xml"/>
        <tripinfo-output value="result_ddqn_1.9_0.4/tripinfo_ep_20.xml"/>
        <vehroute-output value="result_ddqn_1.9_0.4/vehroute_ep_20.xml"/>
    </output>

    <time>
        <begin value="0"/>
    </time>

    <report>
        <verbose value="true"/>
        <no-warnings value="true"/>
        <no-step-log value="true"/>
    </report>

    <traci_server>
        <remote-port value="52337"/>
    </traci_server>

    <gui_only>
        <gui-settings-file value="nets/60p2k/gui-settings.xml"/>
        <quit-on-end value="true"/>
    </gui_only>

</configuration>
-->

<tripinfos xmlns:xsi="http://www.w3.org/2001/XMLSchema-instance" xsi:noNamespaceSchemaLocation="http://sumo.dlr.de/xsd/tripinfo_file.xsd">
    <tripinfo id="flow_3_phase1_N_right.0" depart="0.00" departLane="S_in_0" departPos="103.38" departSpeed="3.75" departDelay="0.00" arrival="24.00" arrivalLane="E_out_0" arrivalPos="189.60" arrivalSpeed="14.80" duration="24.00" routeLength="284.85" waitingTime="0.00" waitingCount="0" stopTime="0.00" timeLoss="4.63" rerouteNo="0" devices="vehroute_flow_3_phase1_N_right.0 tripinfo_flow_3_phase1_N_right.0" vType="car" speedFactor="1.09" vaporized=""/>
    <tripinfo id="flow_5_phase1_S_straight.0" depart="0.00" departLane="N_in_1" departPos="107.37" departSpeed="7.21" departDelay="0.00" arrival="25.00" arrivalLane="S_out_0" arrivalPos="189.60" arrivalSpeed="15.32" duration="25.00" routeLength="292.63" waitingTime="0.00" waitingCount="0" stopTime="0.00" timeLoss="6.09" rerouteNo="0" devices="vehroute_flow_5_phase1_S_straight.0 tripinfo_flow_5_phase1_S_straight.0" vType="moto" speedFactor="1.15" vaporized=""/>
    <tripinfo id="flow_6_phase1_S_left.0" depart="0.00" departLane="S_in_1" departPos="166.01" departSpeed="0.74" departDelay="0.00" arrival="25.00" arrivalLane="W_out_1" arrivalPos="189.60" arrivalSpeed="12.05" duration="25.00" routeLength="232.54" waitingTime="0.00" waitingCount="0" stopTime="0.00" timeLoss="4.42" rerouteNo="0" devices="vehroute_flow_6_phase1_S_left.0 tripinfo_flow_6_phase1_S_left.0" vType="moto" speedFactor="0.88" vaporized=""/>
    <tripinfo id="flow_4_phase1_N_uturn.0" depart="0.00" departLane="N_in_1" departPos="127.60" departSpeed="0.08" departDelay="0.00" arrival="27.00" arrivalLane="N_out_1" arrivalPos="189.60" arrivalSpeed="12.75" duration="27.00" routeLength="256.27" waitingTime="0.00" waitingCount="0" stopTime="0.00" timeLoss="6.24" rerouteNo="0" devices="vehroute_flow_4_phase1_N_uturn.0 tripinfo_flow_4_phase1_N_uturn.0" vType="car" speedFactor="0.92" vaporized=""/>
    <tripinfo id="flow_14_phase1_W_left.0" depart="0.00" departLane="N_in_1" departPos="42.31" departSpeed="3.71" departDelay="0.00" arrival="31.00" arrivalLane="N_out_1" arrivalPos="189.60" arrivalSpeed="13.77" duration="31.00" routeLength="341.56" waitingTime="0.00" waitingCount="0" stopTime="0.00" timeLoss="5.47" rerouteNo="0" devices="vehroute_flow_14_phase1_W_left.0 tripinfo_flow_14_phase1_W_left.0" vType="moto" speedFactor="1.01" vaporized=""/>
    <tripinfo id="flow_8_phase1_S_uturn.0" depart="0.00" departLane="E_in_0" departPos="120.11" departSpeed="4.48" departDelay="0.00" arrival="36.00" arrivalLane="S_out_1" arrivalPos="189.60" arrivalSpeed="14.40" duration="36.00" routeLength="278.44" waitingTime="9.00" waitingCount="1" stopTime="0.00" timeLoss="15.32" rerouteNo="0" devices="vehroute_flow_8_phase1_S_uturn.0 tripinfo_flow_8_phase1_S_uturn.0" vType="moto" speedFactor="1.05" vaporized=""/>
    <tripinfo id="flow_16_phase1_W_uturn.0" depart="0.00" departLane="W_in_1" departPos="126.68" departSpeed="1.28" departDelay="0.00" arrival="37.00" arrivalLane="W_out_1" arrivalPos="189.60" arrivalSpeed="14.32" duration="37.00" routeLength="257.19" waitingTime="8.00" waitingCount="2" stopTime="0.00" timeLoss="17.91" rerouteNo="0" devices="vehroute_flow_16_phase1_W_uturn.0 tripinfo_flow_16_phase1_W_uturn.0" vType="moto" speedFactor="1.04" vaporized=""/>
    <tripinfo id="flow_15_phase1_W_right.0" depart="0.00" departLane="W_in_1" departPos="45.77" departSpeed="6.73" departDelay="0.00" arrival="39.00" arrivalLane="S_out_0" arrivalPos="189.60" arrivalSpeed="11.58" duration="39.00" routeLength="342.46" waitingTime="2.00" waitingCount="1" stopTime="0.00" timeLoss="8.18" rerouteNo="0" devices="vehroute_flow_15_phase1_W_right.0 tripinfo_flow_15_phase1_W_right.0" vType="moto" speedFactor="0.85" vaporized=""/>
    <tripinfo id="flow_2_phase1_N_left.0" depart="0.00" departLane="W_in_1" departPos="8.27" departSpeed="8.33" departDelay="0.00" arrival="40.00" arrivalLane="S_out_0" arrivalPos="189.60" arrivalSpeed="13.29" duration="40.00" routeLength="379.96" waitingTime="1.00" waitingCount="1" stopTime="0.00" timeLoss="12.21" rerouteNo="0" devices="vehroute_flow_2_phase1_N_left.0 tripinfo_flow_2_phase1_N_left.0" vType="moto" speedFactor="1.02" vaporized=""/>
    <tripinfo id="flow_9_phase1_E_straight.0" depart="0.00" departLane="E_in_0" departPos="168.29" departSpeed="9.83" departDelay="0.00" arrival="41.00" arrivalLane="W_out_0" arrivalPos="189.60" arrivalSpeed="11.89" duration="41.00" routeLength="231.71" waitingTime="12.00" waitingCount="1" stopTime="0.00" timeLoss="21.76" rerouteNo="0" devices="vehroute_flow_9_phase1_E_straight.0 tripinfo_flow_9_phase1_E_straight.0" vType="truck" speedFactor="0.90" vaporized=""/>
    <tripinfo id="flow_12_phase1_E_uturn.0" depart="0.00" departLane="W_in_0" departPos="5.65" departSpeed="13.76" departDelay="0.00" arrival="41.00" arrivalLane="N_out_1" arrivalPos="189.60" arrivalSpeed="13.35" duration="41.00" routeLength="392.90" waitingTime="3.00" waitingCount="1" stopTime="0.00" timeLoss="12.53" rerouteNo="0" devices="vehroute_flow_12_phase1_E_uturn.0 tripinfo_flow_12_phase1_E_uturn.0" vType="moto" speedFactor="1.03" vaporized=""/>
    <tripinfo id="flow_11_phase1_E_right.0" depart="0.00" departLane="E_in_1" departPos="144.95" departSpeed="4.02" departDelay="0.00" arrival="42.00" arrivalLane="N_out_0" arrivalPos="189.60" arrivalSpeed="12.61" duration="42.00" routeLength="243.28" waitingTime="10.00" waitingCount="1" stopTime="0.00" timeLoss="23.08" rerouteNo="0" devices="vehroute_flow_11_phase1_E_right.0 tripinfo_flow_11_phase1_E_right.0" vType="bus" speedFactor="0.96" vaporized=""/>
    <tripinfo id="flow_9_phase1_E_straight.1" depart="13.00" departLane="E_in_0" departPos="131.13" departSpeed="9.54" departDelay="0.12" arrival="43.00" arrivalLane="W_out_0" arrivalPos="189.60" arrivalSpeed="15.32" duration="30.00" routeLength="268.87" waitingTime="1.00" waitingCount="1" stopTime="0.00" timeLoss="12.31" rerouteNo="0" devices="vehroute_flow_9_phase1_E_straight.1 tripinfo_flow_9_phase1_E_straight.1" vType="moto" speedFactor="1.16" vaporized=""/>
    <tripinfo id="flow_13_phase1_W_straight.0" depart="0.00" departLane="E_in_0" departPos="77.99" departSpeed="3.79" departDelay="0.00" arrival="46.00" arrivalLane="S_out_1" arrivalPos="189.60" arrivalSpeed="10.85" duration="46.00" routeLength="320.56" waitingTime="2.00" waitingCount="1" stopTime="0.00" timeLoss="16.61" rerouteNo="0" devices="vehroute_flow_13_phase1_W_straight.0 tripinfo_flow_13_phase1_W_straight.0" vType="container" speedFactor="0.82" vaporized=""/>
    <tripinfo id="flow_10_phase1_E_left.0" depart="0.00" departLane="E_in_0" departPos="44.88" departSpeed="7.69" departDelay="0.00" arrival="48.00" arrivalLane="S_out_1" arrivalPos="189.60" arrivalSpeed="13.90" duration="48.00" routeLength="353.67" waitingTime="1.00" waitingCount="1" stopTime="0.00" timeLoss="22.03" rerouteNo="0" devices="vehroute_flow_10_phase1_E_left.0 tripinfo_flow_10_phase1_E_left.0" vType="truck" speedFactor="1.02" vaporized=""/>
    <tripinfo id="flow_5_phase1_S_straight.1" depart="14.00" departLane="N_in_1" departPos="31.93" departSpeed="9.28" departDelay="0.77" arrival="48.00" arrivalLane="S_out_0" arrivalPos="189.60" arrivalSpeed="15.06" duration="34.00" routeLength="368.07" waitingTime="2.00" waitingCount="1" stopTime="0.00" timeLoss="10.56" rerouteNo="0" devices="vehroute_flow_5_phase1_S_straight.1 tripinfo_flow_5_phase1_S_straight.1" vType="moto" speedFactor="1.19" vaporized=""/>
    <tripinfo id="flow_7_phase1_S_right.0" depart="0.00" departLane="S_in_0" departPos="8.76" departSpeed="8.07" departDelay="0.00" arrival="58.00" arrivalLane="E_out_0" arrivalPos="189.60" arrivalSpeed="11.42" duration="58.00" routeLength="379.47" waitingTime="12.00" waitingCount="1" stopTime="0.00" timeLoss="24.91" rerouteNo="0" devices="vehroute_flow_7_phase1_S_right.0 tripinfo_flow_7_phase1_S_right.0" vType="container" speedFactor="0.85" vaporized=""/>
    <tripinfo id="flow_5_phase1_S_straight.2" depart="27.00" departLane="N_in_1" departPos="12.70" departSpeed="12.41" departDelay="0.54" arrival="58.00" arrivalLane="S_out_0" arrivalPos="189.60" arrivalSpeed="12.29" duration="31.00" routeLength="387.30" waitingTime="0.00" waitingCount="0" stopTime="0.00" timeLoss="1.59" rerouteNo="0" devices="vehroute_flow_5_phase1_S_straight.2 tripinfo_flow_5_phase1_S_straight.2" vType="moto" speedFactor="0.96" vaporized=""/>
    <tripinfo id="flow_2_phase1_N_left.1" depart="33.00" departLane="W_in_0" departPos="136.87" departSpeed="1.25" departDelay="0.32" arrival="60.00" arrivalLane="S_out_0" arrivalPos="189.60" arrivalSpeed="14.90" duration="27.00" routeLength="251.36" waitingTime="0.00" waitingCount="0" stopTime="0.00" timeLoss="9.66" rerouteNo="0" devices="vehroute_flow_2_phase1_N_left.1 tripinfo_flow_2_phase1_N_left.1" vType="moto" speedFactor="1.12" vaporized=""/>
    <tripinfo id="flow_11_phase1_E_right.1" depart="33.00" departLane="E_in_1" departPos="156.52" departSpeed="6.10" departDelay="0.51" arrival="61.00" arrivalLane="N_out_0" arrivalPos="189.60" arrivalSpeed="14.09" duration="28.00" routeLength="231.71" waitingTime="3.00" waitingCount="1" stopTime="0.00" timeLoss="10.54" rerouteNo="0" devices="vehroute_flow_11_phase1_E_right.1 tripinfo_flow_11_phase1_E_right.1" vType="moto" speedFactor="1.04" vaporized=""/>
    <tripinfo id="flow_15_phase1_W_right.1" depart="33.00" departLane="W_in_0" departPos="69.24" departSpeed="6.26" departDelay="0.16" arrival="62.00" arrivalLane="S_out_0" arrivalPos="189.60" arrivalSpeed="13.87" duration="29.00" routeLength="318.99" waitingTime="0.00" waitingCount="0" stopTime="0.00" timeLoss="6.67" rerouteNo="0" devices="vehroute_flow_15_phase1_W_right.1 tripinfo_flow_15_phase1_W_right.1" vType="moto" speedFactor="1.08" vaporized=""/>
    <tripinfo id="flow_9_phase1_E_straight.2" depart="26.00" departLane="E_in_1" departPos="52.87" departSpeed="0.38" departDelay="0.25" arrival="63.00" arrivalLane="W_out_0" arrivalPos="189.60" arrivalSpeed="13.00" duration="37.00" routeLength="347.13" waitingTime="0.00" waitingCount="0" stopTime="0.00" timeLoss="11.75" rerouteNo="0" devices="vehroute_flow_9_phase1_E_straight.2 tripinfo_flow_9_phase1_E_straight.2" vType="moto" speedFactor="0.99" vaporized=""/>
    <tripinfo id="flow_1_phase1_N_straight.0" depart="0.00" departLane="E_in_0" departPos="8.62" departSpeed="8.51" departDelay="0.00" arrival="68.00" arrivalLane="S_out_1" arrivalPos="189.60" arrivalSpeed="11.23" duration="68.00" routeLength="389.93" waitingTime="10.00" waitingCount="1" stopTime="0.00" timeLoss="34.48" rerouteNo="0" devices="vehroute_flow_1_phase1_N_straight.0 tripinfo_flow_1_phase1_N_straight.0" vType="bus" speedFactor="0.86" vaporized=""/>
    <tripinfo id="flow_13_phase1_W_straight.1" depart="14.00" departLane="E_in_1" departPos="121.65" departSpeed="2.86" departDelay="0.62" arrival="70.00" arrivalLane="S_out_1" arrivalPos="189.60" arrivalSpeed="15.56" duration="56.00" routeLength="276.90" waitingTime="10.00" waitingCount="1" stopTime="0.00" timeLoss="37.51" rerouteNo="0" devices="vehroute_flow_13_phase1_W_straight.1 tripinfo_flow_13_phase1_W_straight.1" vType="car" speedFactor="1.12" vaporized=""/>
    <tripinfo id="flow_13_phase1_W_straight.3" depart="41.00" departLane="E_in_0" departPos="160.30" departSpeed="9.36" departDelay="0.85" arrival="72.00" arrivalLane="S_out_1" arrivalPos="189.60" arrivalSpeed="14.04" duration="31.00" routeLength="238.25" waitingTime="4.00" waitingCount="1" stopTime="0.00" timeLoss="13.78" rerouteNo="0" devices="vehroute_flow_13_phase1_W_straight.3 tripinfo_flow_13_phase1_W_straight.3" vType="car" speedFactor="1.05" vaporized=""/>
    <tripinfo id="flow_5_phase1_S_straight.3" depart="40.00" departLane="N_in_0" departPos="167.23" departSpeed="2.11" departDelay="0.31" arrival="74.00" arrivalLane="S_out_0" arrivalPos="189.60" arrivalSpeed="14.92" duration="34.00" routeLength="232.77" waitingTime="11.00" waitingCount="1" stopTime="0.00" timeLoss="18.02" rerouteNo="0" devices="vehroute_flow_5_phase1_S_straight.3 tripinfo_flow_5_phase1_S_straight.3" vType="moto" speedFactor="1.08" vaporized=""/>
    <tripinfo id="flow_3_phase1_N_right.1" depart="35.00" departLane="S_in_0" departPos="132.62" departSpeed="4.20" departDelay="0.82" arrival="76.00" arrivalLane="E_out_0" arrivalPos="189.60" arrivalSpeed="12.05" duration="41.00" routeLength="255.61" waitingTime="13.00" waitingCount="1" stopTime="0.00" timeLoss="19.47" rerouteNo="0" devices="vehroute_flow_3_phase1_N_right.1 tripinfo_flow_3_phase1_N_right.1" vType="moto" speedFactor="0.88" vaporized=""/>
    <tripinfo id="flow_14_phase1_W_left.1" depart="35.00" departLane="N_in_0" departPos="125.48" departSpeed="5.93" departDelay="0.53" arrival="80.00" arrivalLane="N_out_1" arrivalPos="189.60" arrivalSpeed="12.41" duration="45.00" routeLength="258.39" waitingTime="11.00" waitingCount="1" stopTime="0.00" timeLoss="23.38" rerouteNo="0" devices="vehroute_flow_14_phase1_W_left.1 tripinfo_flow_14_phase1_W_left.1" vType="container" speedFactor="0.91" vaporized=""/>
    <tripinfo id="flow_5_phase1_S_straight.4" depart="53.00" departLane="N_in_1" departPos="111.69" departSpeed="5.81" departDelay="0.08" arrival="83.00" arrivalLane="S_out_0" arrivalPos="189.60" arrivalSpeed="13.43" duration="30.00" routeLength="288.31" waitingTime="0.00" waitingCount="0" stopTime="0.00" timeLoss="8.16" rerouteNo="0" devices="vehroute_flow_5_phase1_S_straight.4 tripinfo_flow_5_phase1_S_straight.4" vType="container" speedFactor="0.97" vaporized=""/>
    <tripinfo id="flow_7_phase1_S_right.1" depart="33.00" departLane="S_in_1" departPos="40.26" departSpeed="3.16" departDelay="0.51" arrival="86.00" arrivalLane="E_out_0" arrivalPos="189.60" arrivalSpeed="10.75" duration="53.00" routeLength="347.97" waitingTime="3.00" waitingCount="1" stopTime="0.00" timeLoss="19.38" rerouteNo="0" devices="vehroute_flow_7_phase1_S_right.1 tripinfo_flow_7_phase1_S_right.1" vType="container" speedFactor="0.78" vaporized=""/>
    <tripinfo id="flow_6_phase1_S_left.1" depart="34.00" departLane="S_in_1" departPos="57.40" departSpeed="0.35" departDelay="0.55" arrival="86.00" arrivalLane="W_out_1" arrivalPos="189.60" arrivalSpeed="14.03" duration="52.00" routeLength="341.15" waitingTime="17.00" waitingCount="2" stopTime="0.00" timeLoss="27.40" rerouteNo="0" devices="vehroute_flow_6_phase1_S_left.1 tripinfo_flow_6_phase1_S_left.1" vType="moto" speedFactor="1.05" vaporized=""/>
    <tripinfo id="flow_2_phase1_N_left.2" depart="66.00" departLane="W_in_1" departPos="124.88" departSpeed="0.01" departDelay="0.64" arrival="89.00" arrivalLane="S_out_0" arrivalPos="189.60" arrivalSpeed="15.19" duration="23.00" routeLength="263.35" waitingTime="0.00" waitingCount="0" stopTime="0.00" timeLoss="4.49" rerouteNo="0" devices="vehroute_flow_2_phase1_N_left.2 tripinfo_flow_2_phase1_N_left.2" vType="emergency" speedFactor="1.10" vaporized=""/>
    <tripinfo id="flow_1_phase1_N_straight.1" depart="14.00" departLane="E_in_1" departPos="58.36" departSpeed="11.64" departDelay="0.48" arrival="91.00" arrivalLane="S_out_1" arrivalPos="189.60" arrivalSpeed="10.93" duration="77.00" routeLength="340.19" waitingTime="23.00" waitingCount="3" stopTime="0.00" timeLoss="47.33" rerouteNo="0" devices="vehroute_flow_1_phase1_N_straight.1 tripinfo_flow_1_phase1_N_straight.1" vType="moto" speedFactor="0.87" vaporized=""/>
    <tripinfo id="flow_16_phase1_W_uturn.1" depart="67.00" departLane="W_in_0" departPos="149.69" departSpeed="1.87" departDelay="0.80" arrival="91.00" arrivalLane="W_out_1" arrivalPos="189.60" arrivalSpeed="13.80" duration="24.00" routeLength="234.18" waitingTime="0.00" waitingCount="0" stopTime="0.00" timeLoss="6.65" rerouteNo="0" devices="vehroute_flow_16_phase1_W_uturn.1 tripinfo_flow_16_phase1_W_uturn.1" vType="moto" speedFactor="1.04" vaporized=""/>
    <tripinfo id="flow_13_phase1_W_straight.2" depart="27.00" departLane="E_in_1" departPos="16.31" departSpeed="12.71" departDelay="0.23" arrival="94.00" arrivalLane="S_out_1" arrivalPos="189.60" arrivalSpeed="13.21" duration="67.00" routeLength="382.24" waitingTime="15.00" waitingCount="2" stopTime="0.00" timeLoss="37.38" rerouteNo="0" devices="vehroute_flow_13_phase1_W_straight.2 tripinfo_flow_13_phase1_W_straight.2" vType="bus" speedFactor="0.97" vaporized=""/>
    <tripinfo id="flow_15_phase1_W_right.2" depart="66.00" departLane="W_in_1" departPos="74.60" departSpeed="10.12" departDelay="0.32" arrival="95.00" arrivalLane="S_out_0" arrivalPos="189.60" arrivalSpeed="11.87" duration="29.00" routeLength="313.63" waitingTime="0.00" waitingCount="0" stopTime="0.00" timeLoss="3.14" rerouteNo="0" devices="vehroute_flow_15_phase1_W_right.2 tripinfo_flow_15_phase1_W_right.2" vType="moto" speedFactor="0.89" vaporized=""/>
    <tripinfo id="flow_7_phase1_S_right.2" depart="65.00" departLane="S_in_0" departPos="168.21" departSpeed="0.21" departDelay="0.01" arrival="100.00" arrivalLane="E_out_0" arrivalPos="189.60" arrivalSpeed="13.19" duration="35.00" routeLength="220.02" waitingTime="11.00" waitingCount="1" stopTime="0.00" timeLoss="18.95" rerouteNo="0" devices="vehroute_flow_7_phase1_S_right.2 tripinfo_flow_7_phase1_S_right.2" vType="moto" speedFactor="1.03" vaporized=""/>
    <tripinfo id="flow_1_phase1_N_straight.4" depart="55.00" departLane="E_in_0" departPos="179.13" departSpeed="6.49" departDelay="0.94" arrival="101.00" arrivalLane="S_out_1" arrivalPos="189.60" arrivalSpeed="12.10" duration="46.00" routeLength="219.42" waitingTime="18.00" waitingCount="2" stopTime="0.00" timeLoss="27.39" rerouteNo="0" devices="vehroute_flow_1_phase1_N_straight.4 tripinfo_flow_1_phase1_N_straight.4" vType="truck" speedFactor="0.92" vaporized=""/>
    <tripinfo id="flow_4_phase1_N_uturn.1" depart="67.00" departLane="N_in_1" departPos="177.50" departSpeed="6.35" departDelay="0.96" arrival="101.00" arrivalLane="N_out_1" arrivalPos="189.60" arrivalSpeed="12.94" duration="34.00" routeLength="206.37" waitingTime="13.00" waitingCount="1" stopTime="0.00" timeLoss="17.59" rerouteNo="0" devices="vehroute_flow_4_phase1_N_uturn.1 tripinfo_flow_4_phase1_N_uturn.1" vType="moto" speedFactor="0.94" vaporized=""/>
    <tripinfo id="flow_5_phase1_S_straight.5" depart="67.00" departLane="N_in_1" departPos="159.96" departSpeed="6.60" departDelay="0.85" arrival="101.00" arrivalLane="S_out_0" arrivalPos="189.60" arrivalSpeed="13.79" duration="34.00" routeLength="240.04" waitingTime="7.00" waitingCount="1" stopTime="0.00" timeLoss="16.57" rerouteNo="0" devices="vehroute_flow_5_phase1_S_straight.5 tripinfo_flow_5_phase1_S_straight.5" vType="moto" speedFactor="1.03" vaporized=""/>
    <tripinfo id="flow_3_phase1_N_right.2" depart="69.00" departLane="S_in_1" departPos="174.35" departSpeed="3.00" departDelay="0.63" arrival="102.00" arrivalLane="E_out_0" arrivalPos="189.60" arrivalSpeed="14.79" duration="33.00" routeLength="213.88" waitingTime="9.00" waitingCount="1" stopTime="0.00" timeLoss="17.50" rerouteNo="0" devices="vehroute_flow_3_phase1_N_right.2 tripinfo_flow_3_phase1_N_right.2" vType="moto" speedFactor="1.10" vaporized=""/>
    <tripinfo id="flow_5_phase1_S_straight.6" depart="80.00" departLane="N_in_0" departPos="174.06" departSpeed="3.37" departDelay="0.62" arrival="102.00" arrivalLane="S_out_0" arrivalPos="189.60" arrivalSpeed="14.03" duration="22.00" routeLength="225.94" waitingTime="0.00" waitingCount="0" stopTime="0.00" timeLoss="7.03" rerouteNo="0" devices="vehroute_flow_5_phase1_S_straight.6 tripinfo_flow_5_phase1_S_straight.6" vType="moto" speedFactor="1.10" vaporized=""/>
    <tripinfo id="flow_14_phase1_W_left.2" depart="69.00" departLane="N_in_0" departPos="161.31" departSpeed="3.13" departDelay="0.06" arrival="105.00" arrivalLane="N_out_1" arrivalPos="189.60" arrivalSpeed="12.22" duration="36.00" routeLength="222.56" waitingTime="9.00" waitingCount="1" stopTime="0.00" timeLoss="16.22" rerouteNo="0" devices="vehroute_flow_14_phase1_W_left.2 tripinfo_flow_14_phase1_W_left.2" vType="car" speedFactor="0.90" vaporized=""/>
    <tripinfo id="flow_6_phase1_S_left.2" depart="67.00" departLane="S_in_1" departPos="29.07" departSpeed="2.57" departDelay="0.10" arrival="110.00" arrivalLane="W_out_1" arrivalPos="189.60" arrivalSpeed="12.19" duration="43.00" routeLength="369.48" waitingTime="1.00" waitingCount="1" stopTime="0.00" timeLoss="12.39" rerouteNo="0" devices="vehroute_flow_6_phase1_S_left.2 tripinfo_flow_6_phase1_S_left.2" vType="truck" speedFactor="0.89" vaporized=""/>
    <tripinfo id="flow_1_phase1_N_straight.2" depart="28.00" departLane="E_in_0" departPos="34.25" departSpeed="2.67" departDelay="0.97" arrival="115.00" arrivalLane="S_out_1" arrivalPos="189.60" arrivalSpeed="12.17" duration="87.00" routeLength="364.30" waitingTime="26.00" waitingCount="4" stopTime="0.00" timeLoss="57.98" rerouteNo="0" devices="vehroute_flow_1_phase1_N_straight.2 tripinfo_flow_1_phase1_N_straight.2" vType="moto" speedFactor="0.93" vaporized=""/>
    <tripinfo id="flow_2_phase1_N_left.3" depart="99.00" departLane="W_in_0" departPos="178.62" departSpeed="6.73" departDelay="0.96" arrival="120.00" arrivalLane="S_out_0" arrivalPos="189.60" arrivalSpeed="11.84" duration="21.00" routeLength="209.61" waitingTime="0.00" waitingCount="0" stopTime="0.00" timeLoss="2.39" rerouteNo="0" devices="vehroute_flow_2_phase1_N_left.3 tripinfo_flow_2_phase1_N_left.3" vType="moto" speedFactor="0.89" vaporized=""/>
    <tripinfo id="flow_9_phase1_E_straight.3" depart="39.00" departLane="E_in_1" departPos="23.57" departSpeed="3.33" departDelay="0.37" arrival="121.00" arrivalLane="W_out_0" arrivalPos="189.60" arrivalSpeed="11.29" duration="82.00" routeLength="376.43" waitingTime="23.00" waitingCount="3" stopTime="0.00" timeLoss="49.85" rerouteNo="0" devices="vehroute_flow_9_phase1_E_straight.3 tripinfo_flow_9_phase1_E_straight.3" vType="bus" speedFactor="0.85" vaporized=""/>
    <tripinfo id="flow_15_phase1_W_right.3" depart="99.00" departLane="W_in_0" departPos="173.60" departSpeed="3.55" departDelay="0.49" arrival="121.00" arrivalLane="S_out_0" arrivalPos="189.60" arrivalSpeed="12.99" duration="22.00" routeLength="214.63" waitingTime="0.00" waitingCount="0" stopTime="0.00" timeLoss="7.67" rerouteNo="0" devices="vehroute_flow_15_phase1_W_right.3 tripinfo_flow_15_phase1_W_right.3" vType="moto" speedFactor="1.17" vaporized=""/>
    <tripinfo id="flow_10_phase1_E_left.1" depart="34.00" departLane="E_in_1" departPos="56.18" departSpeed="6.20" departDelay="0.50" arrival="123.00" arrivalLane="S_out_1" arrivalPos="189.60" arrivalSpeed="9.96" duration="89.00" routeLength="342.37" waitingTime="20.00" waitingCount="2" stopTime="0.00" timeLoss="55.80" rerouteNo="0" devices="vehroute_flow_10_phase1_E_left.1 tripinfo_flow_10_phase1_E_left.1" vType="truck" speedFactor="0.77" vaporized=""/>
    <tripinfo id="flow_9_phase1_E_straight.4" depart="52.00" departLane="E_in_1" departPos="65.33" departSpeed="11.97" departDelay="0.49" arrival="123.00" arrivalLane="W_out_0" arrivalPos="189.60" arrivalSpeed="12.28" duration="71.00" routeLength="334.67" waitingTime="18.00" waitingCount="2" stopTime="0.00" timeLoss="45.72" rerouteNo="0" devices="vehroute_flow_9_phase1_E_straight.4 tripinfo_flow_9_phase1_E_straight.4" vType="bus" speedFactor="0.95" vaporized=""/>
    <tripinfo id="flow_1_phase1_N_straight.3" depart="41.00" departLane="E_in_0" departPos="8.08" departSpeed="7.68" departDelay="0.45" arrival="125.00" arrivalLane="S_out_1" arrivalPos="189.60" arrivalSpeed="14.27" duration="84.00" routeLength="390.47" waitingTime="19.00" waitingCount="2" stopTime="0.00" timeLoss="58.59" rerouteNo="0" devices="vehroute_flow_1_phase1_N_straight.3 tripinfo_flow_1_phase1_N_straight.3" vType="moto" speedFactor="1.20" vaporized=""/>
    <tripinfo id="flow_12_phase1_E_uturn.1" depart="66.00" departLane="W_in_1" departPos="21.68" departSpeed="5.45" departDelay="0.19" arrival="126.00" arrivalLane="N_out_1" arrivalPos="189.60" arrivalSpeed="13.11" duration="60.00" routeLength="376.87" waitingTime="18.00" waitingCount="2" stopTime="0.00" timeLoss="30.70" rerouteNo="0" devices="vehroute_flow_12_phase1_E_uturn.1 tripinfo_flow_12_phase1_E_uturn.1" vType="moto" speedFactor="0.95" vaporized=""/>
    <tripinfo id="flow_13_phase1_W_straight.4" depart="54.00" departLane="E_in_1" departPos="19.51" departSpeed="4.58" departDelay="0.46" arrival="127.00" arrivalLane="S_out_1" arrivalPos="189.60" arrivalSpeed="11.52" duration="73.00" routeLength="379.04" waitingTime="13.00" waitingCount="2" stopTime="0.00" timeLoss="40.36" rerouteNo="0" devices="vehroute_flow_13_phase1_W_straight.4 tripinfo_flow_13_phase1_W_straight.4" vType="bus" speedFactor="0.87" vaporized=""/>
    <tripinfo id="flow_7_phase1_S_right.3" depart="98.00" departLane="S_in_1" departPos="20.79" departSpeed="5.86" departDelay="0.52" arrival="128.00" arrivalLane="E_out_0" arrivalPos="189.60" arrivalSpeed="14.57" duration="30.00" routeLength="367.44" waitingTime="0.00" waitingCount="0" stopTime="0.00" timeLoss="3.84" rerouteNo="0" devices="vehroute_flow_7_phase1_S_right.3 tripinfo_flow_7_phase1_S_right.3" vType="moto" speedFactor="1.07" vaporized=""/>
    <tripinfo id="flow_14_phase1_W_left.3" depart="104.00" departLane="N_in_1" departPos="174.11" departSpeed="8.70" departDelay="0.59" arrival="128.00" arrivalLane="N_out_1" arrivalPos="189.60" arrivalSpeed="14.24" duration="24.00" routeLength="209.76" waitingTime="2.00" waitingCount="1" stopTime="0.00" timeLoss="9.11" rerouteNo="0" devices="vehroute_flow_14_phase1_W_left.3 tripinfo_flow_14_phase1_W_left.3" vType="moto" speedFactor="1.09" vaporized=""/>
    <tripinfo id="flow_5_phase1_S_straight.7" depart="93.00" departLane="N_in_1" departPos="111.57" departSpeed="0.09" departDelay="0.39" arrival="129.00" arrivalLane="S_out_0" arrivalPos="189.60" arrivalSpeed="12.28" duration="36.00" routeLength="288.43" waitingTime="0.00" waitingCount="0" stopTime="0.00" timeLoss="12.75" rerouteNo="0" devices="vehroute_flow_5_phase1_S_straight.7 tripinfo_flow_5_phase1_S_straight.7" vType="bus" speedFactor="0.90" vaporized=""/>
    <tripinfo id="flow_5_phase1_S_straight.8" depart="106.00" departLane="N_in_1" departPos="53.99" departSpeed="5.42" departDelay="0.16" arrival="130.00" arrivalLane="S_out_1" arrivalPos="189.60" arrivalSpeed="15.72" duration="24.00" routeLength="346.01" waitingTime="0.00" waitingCount="0" stopTime="0.00" timeLoss="1.53" rerouteNo="0" devices="vehroute_flow_5_phase1_S_straight.8 tripinfo_flow_5_phase1_S_straight.8" vType="emergency" speedFactor="1.14" vaporized=""/>
    <tripinfo id="flow_3_phase1_N_right.3" depart="103.00" departLane="S_in_1" departPos="58.75" departSpeed="11.07" departDelay="0.45" arrival="132.00" arrivalLane="E_out_0" arrivalPos="189.60" arrivalSpeed="12.49" duration="29.00" routeLength="329.48" waitingTime="0.00" waitingCount="0" stopTime="0.00" timeLoss="3.25" rerouteNo="0" devices="vehroute_flow_3_phase1_N_right.3 tripinfo_flow_3_phase1_N_right.3" vType="moto" speedFactor="0.96" vaporized=""/>
    <tripinfo id="flow_6_phase1_S_left.3" depart="101.00" departLane="S_in_0" departPos="65.74" departSpeed="2.87" departDelay="0.64" arrival="134.00" arrivalLane="W_out_1" arrivalPos="189.60" arrivalSpeed="14.72" duration="33.00" routeLength="332.81" waitingTime="0.00" waitingCount="0" stopTime="0.00" timeLoss="10.29" rerouteNo="0" devices="vehroute_flow_6_phase1_S_left.3 tripinfo_flow_6_phase1_S_left.3" vType="car" speedFactor="1.10" vaporized=""/>
    <tripinfo id="flow_11_phase1_E_right.2" depart="65.00" departLane="E_in_1" departPos="89.17" departSpeed="10.87" departDelay="0.02" arrival="138.00" arrivalLane="N_out_0" arrivalPos="189.60" arrivalSpeed="15.16" duration="73.00" routeLength="299.06" waitingTime="26.00" waitingCount="3" stopTime="0.00" timeLoss="53.06" rerouteNo="0" devices="vehroute_flow_11_phase1_E_right.2 tripinfo_flow_11_phase1_E_right.2" vType="moto" speedFactor="1.14" vaporized=""/>
    <tripinfo id="flow_9_phase1_E_straight.5" depart="65.00" departLane="E_in_0" departPos="31.76" departSpeed="12.51" departDelay="0.62" arrival="142.00" arrivalLane="W_out_0" arrivalPos="189.60" arrivalSpeed="12.72" duration="77.00" routeLength="368.24" waitingTime="21.00" waitingCount="2" stopTime="0.00" timeLoss="50.15" rerouteNo="0" devices="vehroute_flow_9_phase1_E_straight.5 tripinfo_flow_9_phase1_E_straight.5" vType="moto" speedFactor="1.00" vaporized=""/>
    <tripinfo id="flow_8_phase1_S_uturn.1" depart="66.00" departLane="E_in_1" departPos="92.22" departSpeed="0.15" departDelay="0.07" arrival="144.00" arrivalLane="S_out_1" arrivalPos="189.60" arrivalSpeed="12.55" duration="78.00" routeLength="306.33" waitingTime="18.00" waitingCount="2" stopTime="0.00" timeLoss="53.68" rerouteNo="0" devices="vehroute_flow_8_phase1_S_uturn.1 tripinfo_flow_8_phase1_S_uturn.1" vType="truck" speedFactor="0.94" vaporized=""/>