<?xml version="1.0" encoding="UTF-8"?>

<!-- generated on 2025-12-08 21:43:43 by Eclipse SUMO sumo Version 1.18.0
<configuration xmlns:xsi="http://www.w3.org/2001/XMLSchema-instance" xsi:noNamespaceSchemaLocation="http://sumo.dlr.de/xsd/sumoConfiguration.xsd">

    <input>
        <net-file value="nets/60p2k/net.net.xml"/>
        <route-files value="nets/60p2k/route_temp_281_124147880884016_33742306.rou.xml"/>
    </input>

    <output>
        <summary-output value="result_ddqn_1.9_0.4/summary_ep_11.xml"/>
        <tripinfo-output value="result_ddqn_1.9_0.4/tripinfo_ep_11.xml"/>
        <vehroute-output value="result_ddqn_1.9_0.4/vehroute_ep_11.xml"/>
    </output>

    <time>
        <begin value="0"/>
    </time>

    <report>
        <verbose value="true"/>
        <no-warnings value="true"/>
        <no-step-log value="true"/>
    </report>

    <traci_server>
        <remote-port value="54005"/>
    </traci_server>

    <gui_only>
        <gui-settings-file value="nets/60p2k/gui-settings.xml"/>
        <quit-on-end value="true"/>
    </gui_only>

</configuration>
-->

<tripinfos xmlns:xsi="http://www.w3.org/2001/XMLSchema-instance" xsi:noNamespaceSchemaLocation="http://sumo.dlr.de/xsd/tripinfo_file.xsd">
    <tripinfo id="flow_5_phase1_S_straight.0" depart="0.00" departLane="S_in_1" departPos="107.37" departSpeed="7.21" departDelay="0.00" arrival="21.00" arrivalLane="N_out_1" arrivalPos="189.60" arrivalSpeed="15.44" duration="21.00" routeLength="292.63" waitingTime="0.00" waitingCount="0" stopTime="0.00" timeLoss="2.21" rerouteNo="0" devices="vehroute_flow_5_phase1_S_straight.0 tripinfo_flow_5_phase1_S_straight.0" vType="moto" speedFactor="1.15" vaporized=""/>
    <tripinfo id="flow_6_phase1_S_left.0" depart="0.00" departLane="S_in_1" departPos="166.01" departSpeed="0.74" departDelay="0.00" arrival="25.00" arrivalLane="W_out_1" arrivalPos="189.60" arrivalSpeed="11.57" duration="25.00" routeLength="232.54" waitingTime="0.00" waitingCount="0" stopTime="0.00" timeLoss="4.30" rerouteNo="0" devices="vehroute_flow_6_phase1_S_left.0 tripinfo_flow_6_phase1_S_left.0" vType="moto" speedFactor="0.88" vaporized=""/>
    <tripinfo id="flow_10_phase1_E_left.0" depart="0.00" departLane="N_in_0" departPos="44.88" departSpeed="7.69" departDelay="0.00" arrival="31.00" arrivalLane="E_out_1" arrivalPos="189.60" arrivalSpeed="13.42" duration="31.00" routeLength="353.67" waitingTime="0.00" waitingCount="0" stopTime="0.00" timeLoss="4.57" rerouteNo="0" devices="vehroute_flow_10_phase1_E_left.0 tripinfo_flow_10_phase1_E_left.0" vType="truck" speedFactor="1.02" vaporized=""/>
    <tripinfo id="flow_4_phase1_N_uturn.0" depart="0.00" departLane="E_in_1" departPos="127.60" departSpeed="0.08" departDelay="0.00" arrival="38.00" arrivalLane="W_out_1" arrivalPos="189.60" arrivalSpeed="11.54" duration="38.00" routeLength="272.40" waitingTime="6.00" waitingCount="1" stopTime="0.00" timeLoss="16.18" rerouteNo="0" devices="vehroute_flow_4_phase1_N_uturn.0 tripinfo_flow_4_phase1_N_uturn.0" vType="car" speedFactor="0.92" vaporized=""/>
    <tripinfo id="flow_12_phase1_E_uturn.0" depart="0.00" departLane="E_in_0" departPos="5.65" departSpeed="13.76" departDelay="0.00" arrival="39.00" arrivalLane="E_out_1" arrivalPos="189.60" arrivalSpeed="13.58" duration="39.00" routeLength="378.22" waitingTime="3.00" waitingCount="1" stopTime="0.00" timeLoss="11.27" rerouteNo="0" devices="vehroute_flow_12_phase1_E_uturn.0 tripinfo_flow_12_phase1_E_uturn.0" vType="moto" speedFactor="1.03" vaporized=""/>
    <tripinfo id="flow_15_phase1_W_right.0" depart="0.00" departLane="W_in_0" departPos="45.77" departSpeed="2.63" departDelay="0.00" arrival="39.00" arrivalLane="S_out_0" arrivalPos="189.60" arrivalSpeed="10.73" duration="39.00" routeLength="342.46" waitingTime="0.00" waitingCount="0" stopTime="0.00" timeLoss="8.38" rerouteNo="0" devices="vehroute_flow_15_phase1_W_right.0 tripinfo_flow_15_phase1_W_right.0" vType="moto" speedFactor="0.85" vaporized=""/>
    <tripinfo id="flow_9_phase1_E_straight.1" depart="13.00" departLane="E_in_0" departPos="131.13" departSpeed="9.54" departDelay="0.12" arrival="40.00" arrivalLane="W_out_1" arrivalPos="189.60" arrivalSpeed="15.34" duration="27.00" routeLength="268.87" waitingTime="0.00" waitingCount="0" stopTime="0.00" timeLoss="9.67" rerouteNo="0" devices="vehroute_flow_9_phase1_E_straight.1 tripinfo_flow_9_phase1_E_straight.1" vType="moto" speedFactor="1.16" vaporized=""/>
    <tripinfo id="flow_9_phase1_E_straight.0" depart="0.00" departLane="E_in_0" departPos="168.29" departSpeed="9.83" departDelay="0.00" arrival="41.00" arrivalLane="W_out_0" arrivalPos="189.60" arrivalSpeed="12.08" duration="41.00" routeLength="231.71" waitingTime="12.00" waitingCount="1" stopTime="0.00" timeLoss="22.30" rerouteNo="0" devices="vehroute_flow_9_phase1_E_straight.0 tripinfo_flow_9_phase1_E_straight.0" vType="truck" speedFactor="0.90" vaporized=""/>
    <tripinfo id="flow_11_phase1_E_right.0" depart="0.00" departLane="E_in_1" departPos="144.95" departSpeed="4.02" departDelay="0.00" arrival="42.00" arrivalLane="N_out_0" arrivalPos="189.60" arrivalSpeed="12.61" duration="42.00" routeLength="243.28" waitingTime="12.00" waitingCount="1" stopTime="0.00" timeLoss="22.76" rerouteNo="0" devices="vehroute_flow_11_phase1_E_right.0 tripinfo_flow_11_phase1_E_right.0" vType="bus" speedFactor="0.96" vaporized=""/>
    <tripinfo id="flow_13_phase1_W_straight.0" depart="0.00" departLane="W_in_0" departPos="24.53" departSpeed="3.79" departDelay="0.00" arrival="43.00" arrivalLane="E_out_0" arrivalPos="189.60" arrivalSpeed="11.41" duration="43.00" routeLength="375.47" waitingTime="0.00" waitingCount="0" stopTime="0.00" timeLoss="10.07" rerouteNo="0" devices="vehroute_flow_13_phase1_W_straight.0 tripinfo_flow_13_phase1_W_straight.0" vType="container" speedFactor="0.82" vaporized=""/>
    <tripinfo id="flow_8_phase1_S_uturn.0" depart="0.00" departLane="W_in_0" departPos="120.11" departSpeed="4.48" departDelay="0.00" arrival="46.00" arrivalLane="W_out_1" arrivalPos="189.60" arrivalSpeed="14.19" duration="46.00" routeLength="263.76" waitingTime="15.00" waitingCount="2" stopTime="0.00" timeLoss="25.74" rerouteNo="0" devices="vehroute_flow_8_phase1_S_uturn.0 tripinfo_flow_8_phase1_S_uturn.0" vType="moto" speedFactor="1.05" vaporized=""/>
    <tripinfo id="flow_14_phase1_W_left.0" depart="0.00" departLane="W_in_1" departPos="182.88" departSpeed="5.61" departDelay="0.00" arrival="46.00" arrivalLane="N_out_1" arrivalPos="189.60" arrivalSpeed="13.32" duration="46.00" routeLength="215.67" waitingTime="20.00" waitingCount="2" stopTime="0.00" timeLoss="29.32" rerouteNo="0" devices="vehroute_flow_14_phase1_W_left.0 tripinfo_flow_14_phase1_W_left.0" vType="moto" speedFactor="1.01" vaporized=""/>
    <tripinfo id="flow_5_phase1_S_straight.1" depart="14.00" departLane="S_in_1" departPos="31.93" departSpeed="9.28" departDelay="0.77" arrival="48.00" arrivalLane="N_out_1" arrivalPos="189.60" arrivalSpeed="15.28" duration="34.00" routeLength="368.07" waitingTime="2.00" waitingCount="1" stopTime="0.00" timeLoss="10.28" rerouteNo="0" devices="vehroute_flow_5_phase1_S_straight.1 tripinfo_flow_5_phase1_S_straight.1" vType="moto" speedFactor="1.19" vaporized=""/>
    <tripinfo id="flow_2_phase1_N_left.0" depart="0.00" departLane="N_in_1" departPos="8.27" departSpeed="8.33" departDelay="0.00" arrival="53.00" arrivalLane="E_out_1" arrivalPos="189.60" arrivalSpeed="13.89" duration="53.00" routeLength="390.28" waitingTime="15.00" waitingCount="2" stopTime="0.00" timeLoss="23.80" rerouteNo="0" devices="vehroute_flow_2_phase1_N_left.0 tripinfo_flow_2_phase1_N_left.0" vType="moto" speedFactor="1.02" vaporized=""/>
    <tripinfo id="flow_1_phase1_N_straight.0" depart="0.00" departLane="N_in_0" departPos="8.62" departSpeed="8.51" departDelay="0.00" arrival="55.00" arrivalLane="S_out_0" arrivalPos="189.60" arrivalSpeed="11.70" duration="55.00" routeLength="391.38" waitingTime="11.00" waitingCount="1" stopTime="0.00" timeLoss="21.83" rerouteNo="0" devices="vehroute_flow_1_phase1_N_straight.0 tripinfo_flow_1_phase1_N_straight.0" vType="bus" speedFactor="0.86" vaporized=""/>
    <tripinfo id="flow_1_phase1_N_straight.1" depart="14.00" departLane="N_in_1" departPos="58.36" departSpeed="11.64" departDelay="0.48" arrival="56.00" arrivalLane="S_out_1" arrivalPos="189.60" arrivalSpeed="11.25" duration="42.00" routeLength="341.64" waitingTime="4.00" waitingCount="2" stopTime="0.00" timeLoss="13.41" rerouteNo="0" devices="vehroute_flow_1_phase1_N_straight.1 tripinfo_flow_1_phase1_N_straight.1" vType="moto" speedFactor="0.87" vaporized=""/>
    <tripinfo id="flow_7_phase1_S_right.0" depart="0.00" departLane="S_in_0" departPos="8.76" departSpeed="8.07" departDelay="0.00" arrival="57.00" arrivalLane="E_out_0" arrivalPos="189.60" arrivalSpeed="11.51" duration="57.00" routeLength="379.47" waitingTime="12.00" waitingCount="1" stopTime="0.00" timeLoss="23.87" rerouteNo="0" devices="vehroute_flow_7_phase1_S_right.0 tripinfo_flow_7_phase1_S_right.0" vType="container" speedFactor="0.85" vaporized=""/>
    <tripinfo id="flow_1_phase1_N_straight.2" depart="28.00" departLane="N_in_1" departPos="107.53" departSpeed="1.11" departDelay="0.97" arrival="57.00" arrivalLane="S_out_1" arrivalPos="189.60" arrivalSpeed="12.28" duration="29.00" routeLength="292.47" waitingTime="0.00" waitingCount="0" stopTime="0.00" timeLoss="6.23" rerouteNo="0" devices="vehroute_flow_1_phase1_N_straight.2 tripinfo_flow_1_phase1_N_straight.2" vType="moto" speedFactor="0.93" vaporized=""/>
    <tripinfo id="flow_5_phase1_S_straight.2" depart="27.00" departLane="S_in_1" departPos="12.70" departSpeed="12.41" departDelay="0.54" arrival="58.00" arrivalLane="N_out_1" arrivalPos="189.60" arrivalSpeed="13.18" duration="31.00" routeLength="387.30" waitingTime="0.00" waitingCount="0" stopTime="0.00" timeLoss="1.33" rerouteNo="0" devices="vehroute_flow_5_phase1_S_straight.2 tripinfo_flow_5_phase1_S_straight.2" vType="moto" speedFactor="0.96" vaporized=""/>
    <tripinfo id="flow_16_phase1_W_uturn.0" depart="0.00" departLane="W_in_1" departPos="126.68" departSpeed="1.28" departDelay="0.00" arrival="61.00" arrivalLane="W_out_1" arrivalPos="189.60" arrivalSpeed="13.48" duration="61.00" routeLength="257.19" waitingTime="26.00" waitingCount="3" stopTime="0.00" timeLoss="41.95" rerouteNo="0" devices="vehroute_flow_16_phase1_W_uturn.0 tripinfo_flow_16_phase1_W_uturn.0" vType="moto" speedFactor="1.04" vaporized=""/>
    <tripinfo id="flow_13_phase1_W_straight.1" depart="14.00" departLane="W_in_1" departPos="121.65" departSpeed="2.86" departDelay="0.62" arrival="61.00" arrivalLane="E_out_0" arrivalPos="189.60" arrivalSpeed="14.91" duration="47.00" routeLength="278.35" waitingTime="11.00" waitingCount="1" stopTime="0.00" timeLoss="28.61" rerouteNo="0" devices="vehroute_flow_13_phase1_W_straight.1 tripinfo_flow_13_phase1_W_straight.1" vType="car" speedFactor="1.12" vaporized=""/>
    <tripinfo id="flow_9_phase1_E_straight.2" depart="26.00" departLane="E_in_1" departPos="52.87" departSpeed="0.38" departDelay="0.25" arrival="63.00" arrivalLane="W_out_0" arrivalPos="189.60" arrivalSpeed="12.61" duration="37.00" routeLength="347.13" waitingTime="1.00" waitingCount="1" stopTime="0.00" timeLoss="11.05" rerouteNo="0" devices="vehroute_flow_9_phase1_E_straight.2 tripinfo_flow_9_phase1_E_straight.2" vType="moto" speedFactor="0.99" vaporized=""/>
    <tripinfo id="flow_11_phase1_E_right.1" depart="33.00" departLane="E_in_1" departPos="80.24" departSpeed="3.06" departDelay="0.51" arrival="63.00" arrivalLane="N_out_0" arrivalPos="189.60" arrivalSpeed="14.02" duration="30.00" routeLength="307.99" waitingTime="0.00" waitingCount="0" stopTime="0.00" timeLoss="7.18" rerouteNo="0" devices="vehroute_flow_11_phase1_E_right.1 tripinfo_flow_11_phase1_E_right.1" vType="moto" speedFactor="1.04" vaporized=""/>
    <tripinfo id="flow_3_phase1_N_right.0" depart="0.00" departLane="W_in_0" departPos="103.38" departSpeed="3.75" departDelay="0.00" arrival="66.00" arrivalLane="W_out_1" arrivalPos="189.60" arrivalSpeed="14.63" duration="66.00" routeLength="280.49" waitingTime="25.00" waitingCount="4" stopTime="0.00" timeLoss="46.60" rerouteNo="0" devices="vehroute_flow_3_phase1_N_right.0 tripinfo_flow_3_phase1_N_right.0" vType="car" speedFactor="1.09" vaporized=""/>
    <tripinfo id="flow_9_phase1_E_straight.3" depart="39.00" departLane="E_in_0" departPos="86.42" departSpeed="8.41" departDelay="0.37" arrival="68.00" arrivalLane="W_out_0" arrivalPos="189.60" arrivalSpeed="11.28" duration="29.00" routeLength="313.58" waitingTime="0.00" waitingCount="0" stopTime="0.00" timeLoss="1.71" rerouteNo="0" devices="vehroute_flow_9_phase1_E_straight.3 tripinfo_flow_9_phase1_E_straight.3" vType="bus" speedFactor="0.85" vaporized=""/>
    <tripinfo id="flow_13_phase1_W_straight.2" depart="27.00" departLane="W_in_1" departPos="59.51" departSpeed="13.32" departDelay="0.23" arrival="73.00" arrivalLane="E_out_0" arrivalPos="189.60" arrivalSpeed="13.29" duration="46.00" routeLength="340.49" waitingTime="7.00" waitingCount="1" stopTime="0.00" timeLoss="20.01" rerouteNo="0" devices="vehroute_flow_13_phase1_W_straight.2 tripinfo_flow_13_phase1_W_straight.2" vType="bus" speedFactor="0.97" vaporized=""/>
    <tripinfo id="flow_1_phase1_N_straight.3" depart="41.00" departLane="N_in_0" departPos="65.01" departSpeed="6.58" departDelay="0.45" arrival="74.00" arrivalLane="S_out_0" arrivalPos="189.60" arrivalSpeed="15.81" duration="33.00" routeLength="334.99" waitingTime="2.00" waitingCount="1" stopTime="0.00" timeLoss="11.12" rerouteNo="0" devices="vehroute_flow_1_phase1_N_straight.3 tripinfo_flow_1_phase1_N_straight.3" vType="moto" speedFactor="1.20" vaporized=""/>
    <tripinfo id="flow_5_phase1_S_straight.3" depart="40.00" departLane="S_in_0" departPos="184.19" departSpeed="8.58" departDelay="0.31" arrival="75.00" arrivalLane="N_out_0" arrivalPos="189.60" arrivalSpeed="13.81" duration="35.00" routeLength="215.81" waitingTime="14.00" waitingCount="1" stopTime="0.00" timeLoss="20.11" rerouteNo="0" devices="vehroute_flow_5_phase1_S_straight.3 tripinfo_flow_5_phase1_S_straight.3" vType="moto" speedFactor="1.08" vaporized=""/>
    <tripinfo id="flow_6_phase1_S_left.1" depart="34.00" departLane="S_in_1" departPos="79.10" departSpeed="8.50" departDelay="0.55" arrival="78.00" arrivalLane="W_out_1" arrivalPos="189.60" arrivalSpeed="13.82" duration="44.00" routeLength="319.45" waitingTime="12.00" waitingCount="2" stopTime="0.00" timeLoss="20.75" rerouteNo="0" devices="vehroute_flow_6_phase1_S_left.1 tripinfo_flow_6_phase1_S_left.1" vType="moto" speedFactor="1.05" vaporized=""/>
    <tripinfo id="flow_5_phase1_S_straight.4" depart="53.00" departLane="S_in_0" departPos="135.24" departSpeed="1.68" departDelay="0.08" arrival="81.00" arrivalLane="N_out_1" arrivalPos="189.60" arrivalSpeed="12.96" duration="28.00" routeLength="264.76" waitingTime="0.00" waitingCount="0" stopTime="0.00" timeLoss="7.85" rerouteNo="0" devices="vehroute_flow_5_phase1_S_straight.4 tripinfo_flow_5_phase1_S_straight.4" vType="container" speedFactor="0.97" vaporized=""/>
    <tripinfo id="flow_2_phase1_N_left.1" depart="33.00" departLane="N_in_0" departPos="8.88" departSpeed="2.82" departDelay="0.32" arrival="85.00" arrivalLane="E_out_1" arrivalPos="189.60" arrivalSpeed="15.42" duration="52.00" routeLength="389.67" waitingTime="15.00" waitingCount="2" stopTime="0.00" timeLoss="25.91" rerouteNo="0" devices="vehroute_flow_2_phase1_N_left.1 tripinfo_flow_2_phase1_N_left.1" vType="moto" speedFactor="1.12" vaporized=""/>
    <tripinfo id="flow_7_phase1_S_right.1" depart="33.00" departLane="S_in_1" departPos="66.71" departSpeed="7.87" departDelay="0.51" arrival="85.00" arrivalLane="E_out_0" arrivalPos="189.60" arrivalSpeed="10.72" duration="52.00" routeLength="321.52" waitingTime="10.00" waitingCount="1" stopTime="0.00" timeLoss="21.50" rerouteNo="0" devices="vehroute_flow_7_phase1_S_right.1 tripinfo_flow_7_phase1_S_right.1" vType="container" speedFactor="0.78" vaporized=""/>
    <tripinfo id="flow_15_phase1_W_right.1" depart="33.00" departLane="W_in_1" departPos="97.23" departSpeed="5.84" departDelay="0.16" arrival="87.00" arrivalLane="S_out_0" arrivalPos="189.60" arrivalSpeed="14.10" duration="54.00" routeLength="291.00" waitingTime="22.00" waitingCount="2" stopTime="0.00" timeLoss="33.31" rerouteNo="0" devices="vehroute_flow_15_phase1_W_right.1 tripinfo_flow_15_phase1_W_right.1" vType="moto" speedFactor="1.08" vaporized=""/>
    <tripinfo id="flow_13_phase1_W_straight.3" depart="41.00" departLane="W_in_1" departPos="88.42" departSpeed="1.48" departDelay="0.85" arrival="89.00" arrivalLane="E_out_0" arrivalPos="189.60" arrivalSpeed="13.91" duration="48.00" routeLength="311.58" waitingTime="9.00" waitingCount="1" stopTime="0.00" timeLoss="26.34" rerouteNo="0" devices="vehroute_flow_13_phase1_W_straight.3 tripinfo_flow_13_phase1_W_straight.3" vType="car" speedFactor="1.05" vaporized=""/>
    <tripinfo id="flow_3_phase1_N_right.1" depart="35.00" departLane="W_in_0" departPos="166.00" departSpeed="1.28" departDelay="0.82" arrival="90.00" arrivalLane="W_out_1" arrivalPos="189.60" arrivalSpeed="11.14" duration="55.00" routeLength="217.87" waitingTime="25.00" waitingCount="2" stopTime="0.00" timeLoss="36.41" rerouteNo="0" devices="vehroute_flow_3_phase1_N_right.1 tripinfo_flow_3_phase1_N_right.1" vType="moto" speedFactor="0.88" vaporized=""/>
    <tripinfo id="flow_10_phase1_E_left.1" depart="34.00" departLane="N_in_0" departPos="4.52" departSpeed="3.54" departDelay="0.50" arrival="93.00" arrivalLane="E_out_1" arrivalPos="189.60" arrivalSpeed="10.28" duration="59.00" routeLength="394.03" waitingTime="7.00" waitingCount="1" stopTime="0.00" timeLoss="21.16" rerouteNo="0" devices="vehroute_flow_10_phase1_E_left.1 tripinfo_flow_10_phase1_E_left.1" vType="truck" speedFactor="0.77" vaporized=""/>
    <tripinfo id="flow_11_phase1_E_right.2" depart="65.00" departLane="E_in_1" departPos="111.69" departSpeed="6.85" departDelay="0.02" arrival="93.00" arrivalLane="N_out_0" arrivalPos="189.60" arrivalSpeed="15.70" duration="28.00" routeLength="276.54" waitingTime="0.00" waitingCount="0" stopTime="0.00" timeLoss="9.82" rerouteNo="0" devices="vehroute_flow_11_phase1_E_right.2 tripinfo_flow_11_phase1_E_right.2" vType="moto" speedFactor="1.14" vaporized=""/>
    <tripinfo id="flow_9_phase1_E_straight.4" depart="52.00" departLane="E_in_1" departPos="53.32" departSpeed="10.34" departDelay="0.49" arrival="96.00" arrivalLane="W_out_0" arrivalPos="189.60" arrivalSpeed="12.52" duration="44.00" routeLength="346.68" waitingTime="4.00" waitingCount="1" stopTime="0.00" timeLoss="17.26" rerouteNo="0" devices="vehroute_flow_9_phase1_E_straight.4 tripinfo_flow_9_phase1_E_straight.4" vType="bus" speedFactor="0.95" vaporized=""/>
    <tripinfo id="flow_12_phase1_E_uturn.1" depart="66.00" departLane="E_in_0" departPos="155.68" departSpeed="8.48" departDelay="0.19" arrival="96.00" arrivalLane="E_out_1" arrivalPos="189.60" arrivalSpeed="13.04" duration="30.00" routeLength="228.19" waitingTime="5.00" waitingCount="1" stopTime="0.00" timeLoss="11.84" rerouteNo="0" devices="vehroute_flow_12_phase1_E_uturn.1 tripinfo_flow_12_phase1_E_uturn.1" vType="moto" speedFactor="0.95" vaporized=""/>
    <tripinfo id="flow_13_phase1_W_straight.4" depart="54.00" departLane="W_in_0" departPos="70.46" departSpeed="10.65" departDelay="0.46" arrival="97.00" arrivalLane="E_out_0" arrivalPos="189.60" arrivalSpeed="11.93" duration="43.00" routeLength="329.54" waitingTime="6.00" waitingCount="1" stopTime="0.00" timeLoss="15.68" rerouteNo="0" devices="vehroute_flow_13_phase1_W_straight.4 tripinfo_flow_13_phase1_W_straight.4" vType="bus" speedFactor="0.87" vaporized=""/>
    <tripinfo id="flow_9_phase1_E_straight.5" depart="65.00" departLane="E_in_1" departPos="65.33" departSpeed="12.53" departDelay="0.62" arrival="97.00" arrivalLane="W_out_1" arrivalPos="189.60" arrivalSpeed="13.30" duration="32.00" routeLength="334.67" waitingTime="1.00" waitingCount="1" stopTime="0.00" timeLoss="7.56" rerouteNo="0" devices="vehroute_flow_9_phase1_E_straight.5 tripinfo_flow_9_phase1_E_straight.5" vType="moto" speedFactor="1.00" vaporized=""/>
    <tripinfo id="flow_7_phase1_S_right.2" depart="65.00" departLane="S_in_1" departPos="160.30" departSpeed="13.98" departDelay="0.01" arrival="101.00" arrivalLane="E_out_0" arrivalPos="189.60" arrivalSpeed="13.41" duration="36.00" routeLength="227.93" waitingTime="11.00" waitingCount="1" stopTime="0.00" timeLoss="18.62" rerouteNo="0" devices="vehroute_flow_7_phase1_S_right.2 tripinfo_flow_7_phase1_S_right.2" vType="moto" speedFactor="1.03" vaporized=""/>
    <tripinfo id="flow_5_phase1_S_straight.5" depart="67.00" departLane="S_in_1" departPos="65.57" departSpeed="2.39" departDelay="0.85" arrival="103.00" arrivalLane="N_out_0" arrivalPos="189.60" arrivalSpeed="13.88" duration="36.00" routeLength="334.43" waitingTime="0.00" waitingCount="0" stopTime="0.00" timeLoss="11.92" rerouteNo="0" devices="vehroute_flow_5_phase1_S_straight.5 tripinfo_flow_5_phase1_S_straight.5" vType="moto" speedFactor="1.03" vaporized=""/>
    <tripinfo id="flow_5_phase1_S_straight.6" depart="80.00" departLane="S_in_1" departPos="152.01" departSpeed="5.60" departDelay="0.62" arrival="105.00" arrivalLane="N_out_0" arrivalPos="189.60" arrivalSpeed="13.97" duration="25.00" routeLength="247.99" waitingTime="0.00" waitingCount="0" stopTime="0.00" timeLoss="8.31" rerouteNo="0" devices="vehroute_flow_5_phase1_S_straight.6 tripinfo_flow_5_phase1_S_straight.6" vType="moto" speedFactor="1.10" vaporized=""/>
    <tripinfo id="flow_14_phase1_W_left.1" depart="35.00" departLane="W_in_0" departPos="93.41" departSpeed="8.43" departDelay="0.53" arrival="109.00" arrivalLane="N_out_1" arrivalPos="189.60" arrivalSpeed="12.33" duration="74.00" routeLength="305.14" waitingTime="15.00" waitingCount="3" stopTime="0.00" timeLoss="49.12" rerouteNo="0" devices="vehroute_flow_14_phase1_W_left.1 tripinfo_flow_14_phase1_W_left.1" vType="container" speedFactor="0.91" vaporized=""/>
    <tripinfo id="flow_10_phase1_E_left.2" depart="67.00" departLane="N_in_1" departPos="174.17" departSpeed="5.72" departDelay="0.00" arrival="109.00" arrivalLane="E_out_1" arrivalPos="189.60" arrivalSpeed="13.77" duration="42.00" routeLength="224.38" waitingTime="13.00" waitingCount="2" stopTime="0.00" timeLoss="26.28" rerouteNo="0" devices="vehroute_flow_10_phase1_E_left.2 tripinfo_flow_10_phase1_E_left.2" vType="moto" speedFactor="1.07" vaporized=""/>
    <tripinfo id="flow_2_phase1_N_left.2" depart="66.00" departLane="N_in_1" departPos="129.09" departSpeed="5.80" departDelay="0.64" arrival="111.00" arrivalLane="E_out_1" arrivalPos="189.60" arrivalSpeed="15.02" duration="45.00" routeLength="269.46" waitingTime="12.00" waitingCount="2" stopTime="0.00" timeLoss="25.90" rerouteNo="0" devices="vehroute_flow_2_phase1_N_left.2 tripinfo_flow_2_phase1_N_left.2" vType="emergency" speedFactor="1.10" vaporized=""/>
    <tripinfo id="flow_1_phase1_N_straight.4" depart="55.00" departLane="N_in_1" departPos="74.07" departSpeed="0.54" departDelay="0.94" arrival="112.00" arrivalLane="S_out_0" arrivalPos="189.60" arrivalSpeed="12.19" duration="57.00" routeLength="325.93" waitingTime="8.00" waitingCount="1" stopTime="0.00" timeLoss="30.86" rerouteNo="0" devices="vehroute_flow_1_phase1_N_straight.4 tripinfo_flow_1_phase1_N_straight.4" vType="truck" speedFactor="0.92" vaporized=""/>
    <tripinfo id="flow_15_phase1_W_right.2" depart="66.00" departLane="W_in_1" departPos="2.77" departSpeed="6.78" departDelay="0.32" arrival="115.00" arrivalLane="S_out_0" arrivalPos="189.60" arrivalSpeed="12.29" duration="49.00" routeLength="385.46" waitingTime="10.00" waitingCount="1" stopTime="0.00" timeLoss="17.15" rerouteNo="0" devices="vehroute_flow_15_phase1_W_right.2 tripinfo_flow_15_phase1_W_right.2" vType="moto" speedFactor="0.89" vaporized=""/>
    <tripinfo id="flow_13_phase1_W_straight.5" depart="67.00" departLane="W_in_1" departPos="78.09" departSpeed="7.72" departDelay="0.08" arrival="115.00" arrivalLane="E_out_0" arrivalPos="189.60" arrivalSpeed="15.78" duration="48.00" routeLength="321.91" waitingTime="11.00" waitingCount="2" stopTime="0.00" timeLoss="27.57" rerouteNo="0" devices="vehroute_flow_13_phase1_W_straight.5 tripinfo_flow_13_phase1_W_straight.5" vType="moto" speedFactor="1.14" vaporized=""/>
    <tripinfo id="flow_4_phase1_N_uturn.1" depart="67.00" departLane="E_in_0" departPos="91.52" departSpeed="11.56" departDelay="0.96" arrival="116.00" arrivalLane="W_out_0" arrivalPos="189.60" arrivalSpeed="12.26" duration="49.00" routeLength="308.48" waitingTime="15.00" waitingCount="2" stopTime="0.00" timeLoss="24.82" rerouteNo="0" devices="vehroute_flow_4_phase1_N_uturn.1 tripinfo_flow_4_phase1_N_uturn.1" vType="moto" speedFactor="0.94" vaporized=""/>
    <tripinfo id="flow_6_phase1_S_left.2" depart="67.00" departLane="S_in_0" departPos="64.25" departSpeed="5.83" departDelay="0.10" arrival="118.00" arrivalLane="W_out_1" arrivalPos="189.60" arrivalSpeed="11.97" duration="51.00" routeLength="334.30" waitingTime="9.00" waitingCount="2" stopTime="0.00" timeLoss="23.04" rerouteNo="0" devices="vehroute_flow_6_phase1_S_left.2 tripinfo_flow_6_phase1_S_left.2" vType="truck" speedFactor="0.89" vaporized=""/>
    <tripinfo id="flow_13_phase1_W_straight.6" depart="81.00" departLane="W_in_0" departPos="24.55" departSpeed="7.86" departDelay="0.70" arrival="119.00" arrivalLane="E_out_0" arrivalPos="189.60" arrivalSpeed="12.58" duration="38.00" routeLength="375.45" waitingTime="1.00" waitingCount="1" stopTime="0.00" timeLoss="9.90" rerouteNo="0" devices="vehroute_flow_13_phase1_W_straight.6 tripinfo_flow_13_phase1_W_straight.6" vType="car" speedFactor="0.98" vaporized=""/>
    <tripinfo id="flow_9_phase1_E_straight.6" depart="78.00" departLane="E_in_1" departPos="137.11" departSpeed="4.59" departDelay="0.74" arrival="120.00" arrivalLane="W_out_1" arrivalPos="189.60" arrivalSpeed="13.09" duration="42.00" routeLength="262.89" waitingTime="8.00" waitingCount="2" stopTime="0.00" timeLoss="22.93" rerouteNo="0" devices="vehroute_flow_9_phase1_E_straight.6 tripinfo_flow_9_phase1_E_straight.6" vType="moto" speedFactor="1.02" vaporized=""/>
    <tripinfo id="flow_9_phase1_E_straight.7" depart="91.00" departLane="E_in_1" departPos="37.04" departSpeed="3.19" departDelay="0.86" arrival="121.00" arrivalLane="W_out_1" arrivalPos="189.60" arrivalSpeed="13.91" duration="30.00" routeLength="362.96" waitingTime="0.00" waitingCount="0" stopTime="0.00" timeLoss="3.83" rerouteNo="0" devices="vehroute_flow_9_phase1_E_straight.7 tripinfo_flow_9_phase1_E_straight.7" vType="moto" speedFactor="1.01" vaporized=""/>
    <tripinfo id="flow_16_phase1_W_uturn.1" depart="67.00" departLane="W_in_1" departPos="155.35" departSpeed="8.67" departDelay="0.80" arrival="124.00" arrivalLane="W_out_1" arrivalPos="189.60" arrivalSpeed="14.12" duration="57.00" routeLength="228.52" waitingTime="18.00" waitingCount="4" stopTime="0.00" timeLoss="39.76" rerouteNo="0" devices="vehroute_flow_16_phase1_W_uturn.1 tripinfo_flow_16_phase1_W_uturn.1" vType="moto" speedFactor="1.04" vaporized=""/>
    <tripinfo id="flow_7_phase1_S_right.3" depart="98.00" departLane="S_in_1" departPos="150.35" departSpeed="8.44" departDelay="0.52" arrival="126.00" arrivalLane="E_out_0" arrivalPos="189.60" arrivalSpeed="14.10" duration="28.00" routeLength="237.88" waitingTime="4.00" waitingCount="1" stopTime="0.00" timeLoss="10.88" rerouteNo="0" devices="vehroute_flow_7_phase1_S_right.3 tripinfo_flow_7_phase1_S_right.3" vType="moto" speedFactor="1.07" vaporized=""/>
    <tripinfo id="flow_1_phase1_N_straight.6" depart="82.00" departLane="N_in_0" departPos="18.52" departSpeed="1.56" departDelay="0.90" arrival="127.00" arrivalLane="S_out_0" arrivalPos="189.60" arrivalSpeed="12.67" duration="45.00" routeLength="381.48" waitingTime="8.00" waitingCount="1" stopTime="0.00" timeLoss="16.96" rerouteNo="0" devices="vehroute_flow_1_phase1_N_straight.6 tripinfo_flow_1_phase1_N_straight.6" vType="car" speedFactor="0.98" vaporized=""/>
    <tripinfo id="flow_5_phase1_S_straight.7" depart="93.00" departLane="S_in_1" departPos="47.50" departSpeed="4.03" departDelay="0.39" arrival="128.00" arrivalLane="N_out_0" arrivalPos="189.60" arrivalSpeed="12.02" duration="35.00" routeLength="352.50" waitingTime="0.00" waitingCount="0" stopTime="0.00" timeLoss="6.03" rerouteNo="0" devices="vehroute_flow_5_phase1_S_straight.7 tripinfo_flow_5_phase1_S_straight.7" vType="bus" speedFactor="0.90" vaporized=""/>
    <tripinfo id="flow_1_phase1_N_straight.5" depart="68.00" departLane="N_in_0" departPos="92.42" departSpeed="12.50" departDelay="0.42" arrival="129.00" arrivalLane="S_out_0" arrivalPos="189.60" arrivalSpeed="11.95" duration="61.00" routeLength="307.58" waitingTime="19.00" waitingCount="3" stopTime="0.00" timeLoss="35.60" rerouteNo="0" devices="vehroute_flow_1_phase1_N_straight.5 tripinfo_flow_1_phase1_N_straight.5" vType="moto" speedFactor="0.90" vaporized=""/>
    <tripinfo id="flow_1_phase1_N_straight.7" depart="95.00" departLane="N_in_1" departPos="41.83" departSpeed="13.89" departDelay="0.39" arrival="130.00" arrivalLane="S_out_1" arrivalPos="189.60" arrivalSpeed="13.55" duration="35.00" routeLength="358.17" waitingTime="3.00" waitingCount="1" stopTime="0.00" timeLoss="10.30" rerouteNo="0" devices="vehroute_flow_1_phase1_N_straight.7 tripinfo_flow_1_phase1_N_straight.7" vType="moto" speedFactor="1.06" vaporized=""/>
    <tripinfo id="flow_2_phase1_N_left.3" depart="99.00" departLane="N_in_0" departPos="140.51" departSpeed="9.25" departDelay="0.96" arrival="131.00" arrivalLane="E_out_1" arrivalPos="189.60" arrivalSpeed="11.12" duration="32.00" routeLength="258.04" waitingTime="4.00" waitingCount="1" stopTime="0.00" timeLoss="10.19" rerouteNo="0" devices="vehroute_flow_2_phase1_N_left.3 tripinfo_flow_2_phase1_N_left.3" vType="moto" speedFactor="0.89" vaporized=""/>