<?xml version="1.0" encoding="UTF-8"?>

<!-- generated on 2025-12-08 21:39:41 by Eclipse SUMO sumo Version 1.18.0
<configuration xmlns:xsi="http://www.w3.org/2001/XMLSchema-instance" xsi:noNamespaceSchemaLocation="http://sumo.dlr.de/xsd/sumoConfiguration.xsd">

    <input>
        <net-file value="nets/60p2k/net.net.xml"/>
        <route-files value="nets/60p2k/route_temp_281_124147880884016_33742306.rou.xml"/>
    </input>

    <output>
        <summary-output value="result_ddqn_1.9_0.4/summary_ep_2.xml"/>
        <tripinfo-output value="result_ddqn_1.9_0.4/tripinfo_ep_2.xml"/>
        <vehroute-output value="result_ddqn_1.9_0.4/vehroute_ep_2.xml"/>
    </output>

    <time>
        <begin value="0"/>
    </time>

    <report>
        <verbose value="true"/>
        <no-warnings value="true"/>
        <no-step-log value="true"/>
    </report>

    <traci_server>
        <remote-port value="44161"/>
    </traci_server>

    <gui_only>
        <gui-settings-file value="nets/60p2k/gui-settings.xml"/>
        <quit-on-end value="true"/>
    </gui_only>

</configuration>
-->

<tripinfos xmlns:xsi="http://www.w3.org/2001/XMLSchema-instance" xsi:noNamespaceSchemaLocation="http://sumo.dlr.de/xsd/tripinfo_file.xsd">
    <tripinfo id="flow_3_phase1_N_right.0" depart="0.00" departLane="N_in_0" departPos="103.38" departSpeed="3.75" departDelay="0.00" arrival="24.00" arrivalLane="W_out_0" arrivalPos="189.60" arrivalSpeed="14.93" duration="24.00" routeLength="284.85" waitingTime="0.00" waitingCount="0" stopTime="0.00" timeLoss="4.31" rerouteNo="0" devices="vehroute_flow_3_phase1_N_right.0 tripinfo_flow_3_phase1_N_right.0" vType="car" speedFactor="1.09" vaporized=""/>
    <tripinfo id="flow_11_phase1_E_right.0" depart="0.00" departLane="S_in_1" departPos="144.95" departSpeed="4.02" departDelay="0.00" arrival="24.00" arrivalLane="N_out_0" arrivalPos="189.60" arrivalSpeed="13.26" duration="24.00" routeLength="255.05" waitingTime="0.00" waitingCount="0" stopTime="0.00" timeLoss="4.06" rerouteNo="0" devices="vehroute_flow_11_phase1_E_right.0 tripinfo_flow_11_phase1_E_right.0" vType="bus" speedFactor="0.96" vaporized=""/>
    <tripinfo id="flow_12_phase1_E_uturn.0" depart="0.00" departLane="N_in_0" departPos="129.89" departSpeed="13.76" departDelay="0.00" arrival="27.00" arrivalLane="N_out_1" arrivalPos="189.60" arrivalSpeed="14.10" duration="27.00" routeLength="253.98" waitingTime="2.00" waitingCount="1" stopTime="0.00" timeLoss="8.30" rerouteNo="0" devices="vehroute_flow_12_phase1_E_uturn.0 tripinfo_flow_12_phase1_E_uturn.0" vType="moto" speedFactor="1.03" vaporized=""/>
    <tripinfo id="flow_4_phase1_N_uturn.0" depart="0.00" departLane="N_in_1" departPos="127.60" departSpeed="0.08" departDelay="0.00" arrival="32.00" arrivalLane="E_out_1" arrivalPos="189.60" arrivalSpeed="12.65" duration="32.00" routeLength="270.95" waitingTime="1.00" waitingCount="1" stopTime="0.00" timeLoss="9.57" rerouteNo="0" devices="vehroute_flow_4_phase1_N_uturn.0 tripinfo_flow_4_phase1_N_uturn.0" vType="car" speedFactor="0.92" vaporized=""/>
    <tripinfo id="flow_9_phase1_E_straight.1" depart="13.00" departLane="E_in_0" departPos="131.13" departSpeed="8.81" departDelay="0.12" arrival="32.00" arrivalLane="W_out_1" arrivalPos="189.60" arrivalSpeed="15.33" duration="19.00" routeLength="268.87" waitingTime="0.00" waitingCount="0" stopTime="0.00" timeLoss="2.11" rerouteNo="0" devices="vehroute_flow_9_phase1_E_straight.1 tripinfo_flow_9_phase1_E_straight.1" vType="moto" speedFactor="1.16" vaporized=""/>
    <tripinfo id="flow_8_phase1_S_uturn.0" depart="0.00" departLane="W_in_0" departPos="120.11" departSpeed="4.48" departDelay="0.00" arrival="37.00" arrivalLane="E_out_0" arrivalPos="189.60" arrivalSpeed="14.24" duration="37.00" routeLength="279.89" waitingTime="10.00" waitingCount="1" stopTime="0.00" timeLoss="17.46" rerouteNo="0" devices="vehroute_flow_8_phase1_S_uturn.0 tripinfo_flow_8_phase1_S_uturn.0" vType="moto" speedFactor="1.05" vaporized=""/>
    <tripinfo id="flow_6_phase1_S_left.0" depart="0.00" departLane="W_in_1" departPos="166.01" departSpeed="0.74" departDelay="0.00" arrival="38.00" arrivalLane="S_out_0" arrivalPos="189.60" arrivalSpeed="11.11" duration="38.00" routeLength="222.22" waitingTime="10.00" waitingCount="1" stopTime="0.00" timeLoss="18.79" rerouteNo="0" devices="vehroute_flow_6_phase1_S_left.0 tripinfo_flow_6_phase1_S_left.0" vType="moto" speedFactor="0.88" vaporized=""/>
    <tripinfo id="flow_16_phase1_W_uturn.0" depart="0.00" departLane="W_in_1" departPos="126.68" departSpeed="1.28" departDelay="0.00" arrival="38.00" arrivalLane="W_out_1" arrivalPos="189.60" arrivalSpeed="13.86" duration="38.00" routeLength="257.19" waitingTime="9.00" waitingCount="2" stopTime="0.00" timeLoss="18.71" rerouteNo="0" devices="vehroute_flow_16_phase1_W_uturn.0 tripinfo_flow_16_phase1_W_uturn.0" vType="moto" speedFactor="1.04" vaporized=""/>
    <tripinfo id="flow_5_phase1_S_straight.0" depart="0.00" departLane="W_in_1" departPos="107.37" departSpeed="7.21" departDelay="0.00" arrival="41.00" arrivalLane="N_out_1" arrivalPos="189.60" arrivalSpeed="14.92" duration="41.00" routeLength="291.18" waitingTime="8.00" waitingCount="2" stopTime="0.00" timeLoss="21.67" rerouteNo="0" devices="vehroute_flow_5_phase1_S_straight.0 tripinfo_flow_5_phase1_S_straight.0" vType="moto" speedFactor="1.15" vaporized=""/>
    <tripinfo id="flow_9_phase1_E_straight.0" depart="0.00" departLane="E_in_0" departPos="168.29" departSpeed="9.83" departDelay="0.00" arrival="41.00" arrivalLane="W_out_0" arrivalPos="189.60" arrivalSpeed="12.31" duration="41.00" routeLength="231.71" waitingTime="12.00" waitingCount="1" stopTime="0.00" timeLoss="22.26" rerouteNo="0" devices="vehroute_flow_9_phase1_E_straight.0 tripinfo_flow_9_phase1_E_straight.0" vType="truck" speedFactor="0.90" vaporized=""/>
    <tripinfo id="flow_10_phase1_E_left.0" depart="0.00" departLane="W_in_0" departPos="44.88" departSpeed="7.69" departDelay="0.00" arrival="42.00" arrivalLane="S_out_0" arrivalPos="189.60" arrivalSpeed="13.38" duration="42.00" routeLength="343.35" waitingTime="6.00" waitingCount="1" stopTime="0.00" timeLoss="16.50" rerouteNo="0" devices="vehroute_flow_10_phase1_E_left.0 tripinfo_flow_10_phase1_E_left.0" vType="truck" speedFactor="1.02" vaporized=""/>
    <tripinfo id="flow_14_phase1_W_left.0" depart="0.00" departLane="W_in_1" departPos="50.07" departSpeed="13.54" departDelay="0.00" arrival="44.00" arrivalLane="N_out_1" arrivalPos="189.60" arrivalSpeed="13.61" duration="44.00" routeLength="348.48" waitingTime="7.00" waitingCount="1" stopTime="0.00" timeLoss="17.78" rerouteNo="0" devices="vehroute_flow_14_phase1_W_left.0 tripinfo_flow_14_phase1_W_left.0" vType="moto" speedFactor="1.01" vaporized=""/>
    <tripinfo id="flow_7_phase1_S_right.0" depart="0.00" departLane="E_in_0" departPos="8.76" departSpeed="8.07" departDelay="0.00" arrival="45.00" arrivalLane="N_out_0" arrivalPos="189.60" arrivalSpeed="11.33" duration="45.00" routeLength="379.47" waitingTime="0.00" waitingCount="0" stopTime="0.00" timeLoss="11.81" rerouteNo="0" devices="vehroute_flow_7_phase1_S_right.0 tripinfo_flow_7_phase1_S_right.0" vType="container" speedFactor="0.85" vaporized=""/>
    <tripinfo id="flow_15_phase1_W_right.0" depart="0.00" departLane="W_in_1" departPos="45.77" departSpeed="1.98" departDelay="0.00" arrival="47.00" arrivalLane="S_out_0" arrivalPos="189.60" arrivalSpeed="11.08" duration="47.00" routeLength="342.46" waitingTime="4.00" waitingCount="1" stopTime="0.00" timeLoss="16.17" rerouteNo="0" devices="vehroute_flow_15_phase1_W_right.0 tripinfo_flow_15_phase1_W_right.0" vType="moto" speedFactor="0.85" vaporized=""/>
    <tripinfo id="flow_2_phase1_N_left.0" depart="0.00" departLane="N_in_1" departPos="8.27" departSpeed="8.33" departDelay="0.00" arrival="49.00" arrivalLane="E_out_1" arrivalPos="189.60" arrivalSpeed="13.31" duration="49.00" routeLength="390.28" waitingTime="13.00" waitingCount="1" stopTime="0.00" timeLoss="20.06" rerouteNo="0" devices="vehroute_flow_2_phase1_N_left.0 tripinfo_flow_2_phase1_N_left.0" vType="moto" speedFactor="1.02" vaporized=""/>
    <tripinfo id="flow_1_phase1_N_straight.1" depart="14.00" departLane="N_in_1" departPos="58.36" departSpeed="11.64" departDelay="0.48" arrival="52.00" arrivalLane="S_out_1" arrivalPos="189.60" arrivalSpeed="11.49" duration="38.00" routeLength="341.64" waitingTime="5.00" waitingCount="1" stopTime="0.00" timeLoss="9.81" rerouteNo="0" devices="vehroute_flow_1_phase1_N_straight.1 tripinfo_flow_1_phase1_N_straight.1" vType="moto" speedFactor="0.87" vaporized=""/>
    <tripinfo id="flow_1_phase1_N_straight.2" depart="28.00" departLane="N_in_1" departPos="107.53" departSpeed="1.11" departDelay="0.97" arrival="54.00" arrivalLane="S_out_1" arrivalPos="189.60" arrivalSpeed="12.26" duration="26.00" routeLength="292.47" waitingTime="0.00" waitingCount="0" stopTime="0.00" timeLoss="3.17" rerouteNo="0" devices="vehroute_flow_1_phase1_N_straight.2 tripinfo_flow_1_phase1_N_straight.2" vType="moto" speedFactor="0.93" vaporized=""/>
    <tripinfo id="flow_11_phase1_E_right.1" depart="33.00" departLane="S_in_1" departPos="128.68" departSpeed="3.06" departDelay="0.51" arrival="55.00" arrivalLane="N_out_1" arrivalPos="189.60" arrivalSpeed="13.85" duration="22.00" routeLength="271.32" waitingTime="0.00" waitingCount="0" stopTime="0.00" timeLoss="2.47" rerouteNo="0" devices="vehroute_flow_11_phase1_E_right.1 tripinfo_flow_11_phase1_E_right.1" vType="moto" speedFactor="1.04" vaporized=""/>
    <tripinfo id="flow_1_phase1_N_straight.0" depart="0.00" departLane="N_in_0" departPos="8.62" departSpeed="8.51" departDelay="0.00" arrival="56.00" arrivalLane="S_out_0" arrivalPos="189.60" arrivalSpeed="11.47" duration="56.00" routeLength="391.38" waitingTime="11.00" waitingCount="1" stopTime="0.00" timeLoss="22.64" rerouteNo="0" devices="vehroute_flow_1_phase1_N_straight.0 tripinfo_flow_1_phase1_N_straight.0" vType="bus" speedFactor="0.86" vaporized=""/>
    <tripinfo id="flow_3_phase1_N_right.1" depart="35.00" departLane="N_in_0" departPos="166.00" departSpeed="1.28" departDelay="0.82" arrival="59.00" arrivalLane="W_out_0" arrivalPos="189.60" arrivalSpeed="12.17" duration="24.00" routeLength="222.23" waitingTime="0.00" waitingCount="0" stopTime="0.00" timeLoss="4.71" rerouteNo="0" devices="vehroute_flow_3_phase1_N_right.1 tripinfo_flow_3_phase1_N_right.1" vType="moto" speedFactor="0.88" vaporized=""/>
    <tripinfo id="flow_2_phase1_N_left.1" depart="33.00" departLane="N_in_0" departPos="8.88" departSpeed="2.82" departDelay="0.32" arrival="65.00" arrivalLane="E_out_1" arrivalPos="189.60" arrivalSpeed="15.06" duration="32.00" routeLength="389.67" waitingTime="0.00" waitingCount="0" stopTime="0.00" timeLoss="5.70" rerouteNo="0" devices="vehroute_flow_2_phase1_N_left.1 tripinfo_flow_2_phase1_N_left.1" vType="moto" speedFactor="1.12" vaporized=""/>
    <tripinfo id="flow_13_phase1_W_straight.1" depart="14.00" departLane="W_in_1" departPos="121.65" departSpeed="2.86" departDelay="0.62" arrival="71.00" arrivalLane="E_out_0" arrivalPos="189.60" arrivalSpeed="14.30" duration="57.00" routeLength="278.35" waitingTime="26.00" waitingCount="1" stopTime="0.00" timeLoss="38.56" rerouteNo="0" devices="vehroute_flow_13_phase1_W_straight.1 tripinfo_flow_13_phase1_W_straight.1" vType="car" speedFactor="1.12" vaporized=""/>
    <tripinfo id="flow_9_phase1_E_straight.2" depart="26.00" departLane="E_in_1" departPos="52.87" departSpeed="0.38" departDelay="0.25" arrival="73.00" arrivalLane="W_out_0" arrivalPos="189.60" arrivalSpeed="13.63" duration="47.00" routeLength="347.13" waitingTime="12.00" waitingCount="1" stopTime="0.00" timeLoss="21.12" rerouteNo="0" devices="vehroute_flow_9_phase1_E_straight.2 tripinfo_flow_9_phase1_E_straight.2" vType="moto" speedFactor="0.99" vaporized=""/>
    <tripinfo id="flow_15_phase1_W_right.1" depart="33.00" departLane="W_in_0" departPos="73.90" departSpeed="9.22" departDelay="0.16" arrival="77.00" arrivalLane="S_out_0" arrivalPos="189.60" arrivalSpeed="14.51" duration="44.00" routeLength="314.33" waitingTime="9.00" waitingCount="1" stopTime="0.00" timeLoss="22.12" rerouteNo="0" devices="vehroute_flow_15_phase1_W_right.1 tripinfo_flow_15_phase1_W_right.1" vType="moto" speedFactor="1.08" vaporized=""/>
    <tripinfo id="flow_6_phase1_S_left.1" depart="34.00" departLane="W_in_1" departPos="79.10" departSpeed="11.99" departDelay="0.55" arrival="79.00" arrivalLane="S_out_0" arrivalPos="189.60" arrivalSpeed="13.39" duration="45.00" routeLength="309.13" waitingTime="9.00" waitingCount="1" stopTime="0.00" timeLoss="22.98" rerouteNo="0" devices="vehroute_flow_6_phase1_S_left.1 tripinfo_flow_6_phase1_S_left.1" vType="moto" speedFactor="1.05" vaporized=""/>
    <tripinfo id="flow_9_phase1_E_straight.3" depart="39.00" departLane="E_in_1" departPos="165.68" departSpeed="5.39" departDelay="0.37" arrival="79.00" arrivalLane="W_out_1" arrivalPos="189.60" arrivalSpeed="11.32" duration="40.00" routeLength="234.32" waitingTime="7.00" waitingCount="1" stopTime="0.00" timeLoss="19.56" rerouteNo="0" devices="vehroute_flow_9_phase1_E_straight.3 tripinfo_flow_9_phase1_E_straight.3" vType="bus" speedFactor="0.85" vaporized=""/>
    <tripinfo id="flow_13_phase1_W_straight.0" depart="0.00" departLane="W_in_0" departPos="23.77" departSpeed="1.48" departDelay="0.00" arrival="81.00" arrivalLane="E_out_0" arrivalPos="189.60" arrivalSpeed="10.92" duration="81.00" routeLength="376.23" waitingTime="21.00" waitingCount="1" stopTime="0.00" timeLoss="47.43" rerouteNo="0" devices="vehroute_flow_13_phase1_W_straight.0 tripinfo_flow_13_phase1_W_straight.0" vType="container" speedFactor="0.82" vaporized=""/>
    <tripinfo id="flow_5_phase1_S_straight.1" depart="14.00" departLane="W_in_1" departPos="31.93" departSpeed="9.28" departDelay="0.77" arrival="81.00" arrivalLane="N_out_1" arrivalPos="189.60" arrivalSpeed="14.99" duration="67.00" routeLength="366.62" waitingTime="28.00" waitingCount="2" stopTime="0.00" timeLoss="42.89" rerouteNo="0" devices="vehroute_flow_5_phase1_S_straight.1 tripinfo_flow_5_phase1_S_straight.1" vType="moto" speedFactor="1.19" vaporized=""/>
    <tripinfo id="flow_7_phase1_S_right.1" depart="33.00" departLane="E_in_1" departPos="66.71" departSpeed="7.87" departDelay="0.51" arrival="82.00" arrivalLane="N_out_0" arrivalPos="189.60" arrivalSpeed="10.35" duration="49.00" routeLength="321.52" waitingTime="7.00" waitingCount="1" stopTime="0.00" timeLoss="18.08" rerouteNo="0" devices="vehroute_flow_7_phase1_S_right.1 tripinfo_flow_7_phase1_S_right.1" vType="container" speedFactor="0.78" vaporized=""/>
    <tripinfo id="flow_1_phase1_N_straight.3" depart="41.00" departLane="N_in_0" departPos="19.25" departSpeed="11.19" departDelay="0.45" arrival="87.00" arrivalLane="S_out_0" arrivalPos="189.60" arrivalSpeed="15.05" duration="46.00" routeLength="380.75" waitingTime="10.00" waitingCount="1" stopTime="0.00" timeLoss="21.31" rerouteNo="0" devices="vehroute_flow_1_phase1_N_straight.3 tripinfo_flow_1_phase1_N_straight.3" vType="moto" speedFactor="1.20" vaporized=""/>
    <tripinfo id="flow_13_phase1_W_straight.2" depart="27.00" departLane="W_in_1" departPos="59.51" departSpeed="13.32" departDelay="0.23" arrival="88.00" arrivalLane="E_out_1" arrivalPos="189.60" arrivalSpeed="12.70" duration="61.00" routeLength="340.49" waitingTime="20.00" waitingCount="2" stopTime="0.00" timeLoss="35.51" rerouteNo="0" devices="vehroute_flow_13_phase1_W_straight.2 tripinfo_flow_13_phase1_W_straight.2" vType="bus" speedFactor="0.97" vaporized=""/>
    <tripinfo id="flow_11_phase1_E_right.2" depart="65.00" departLane="S_in_1" departPos="112.37" departSpeed="10.82" departDelay="0.02" arrival="88.00" arrivalLane="N_out_1" arrivalPos="189.60" arrivalSpeed="15.74" duration="23.00" routeLength="287.63" waitingTime="0.00" waitingCount="0" stopTime="0.00" timeLoss="4.39" rerouteNo="0" devices="vehroute_flow_11_phase1_E_right.2 tripinfo_flow_11_phase1_E_right.2" vType="moto" speedFactor="1.14" vaporized=""/>
    <tripinfo id="flow_2_phase1_N_left.2" depart="66.00" departLane="N_in_1" departPos="121.56" departSpeed="1.57" departDelay="0.64" arrival="92.00" arrivalLane="E_out_1" arrivalPos="189.60" arrivalSpeed="14.78" duration="26.00" routeLength="276.99" waitingTime="0.00" waitingCount="0" stopTime="0.00" timeLoss="7.02" rerouteNo="0" devices="vehroute_flow_2_phase1_N_left.2 tripinfo_flow_2_phase1_N_left.2" vType="emergency" speedFactor="1.10" vaporized=""/>
    <tripinfo id="flow_1_phase1_N_straight.4" depart="55.00" departLane="N_in_1" departPos="29.12" departSpeed="10.80" departDelay="0.94" arrival="95.00" arrivalLane="S_out_1" arrivalPos="189.60" arrivalSpeed="12.65" duration="40.00" routeLength="370.88" waitingTime="0.00" waitingCount="0" stopTime="0.00" timeLoss="10.65" rerouteNo="0" devices="vehroute_flow_1_phase1_N_straight.4 tripinfo_flow_1_phase1_N_straight.4" vType="truck" speedFactor="0.92" vaporized=""/>
    <tripinfo id="flow_7_phase1_S_right.2" depart="65.00" departLane="E_in_0" departPos="125.76" departSpeed="4.92" departDelay="0.01" arrival="97.00" arrivalLane="N_out_0" arrivalPos="189.60" arrivalSpeed="14.17" duration="32.00" routeLength="262.47" waitingTime="6.00" waitingCount="1" stopTime="0.00" timeLoss="12.76" rerouteNo="0" devices="vehroute_flow_7_phase1_S_right.2 tripinfo_flow_7_phase1_S_right.2" vType="moto" speedFactor="1.03" vaporized=""/>
    <tripinfo id="flow_13_phase1_W_straight.3" depart="41.00" departLane="W_in_0" departPos="148.08" departSpeed="9.53" departDelay="0.85" arrival="98.00" arrivalLane="E_out_0" arrivalPos="189.60" arrivalSpeed="13.89" duration="57.00" routeLength="251.92" waitingTime="20.00" waitingCount="2" stopTime="0.00" timeLoss="39.35" rerouteNo="0" devices="vehroute_flow_13_phase1_W_straight.3 tripinfo_flow_13_phase1_W_straight.3" vType="car" speedFactor="1.05" vaporized=""/>
    <tripinfo id="flow_9_phase1_E_straight.5" depart="65.00" departLane="E_in_0" departPos="52.57" departSpeed="8.16" departDelay="0.62" arrival="99.00" arrivalLane="W_out_0" arrivalPos="189.60" arrivalSpeed="12.78" duration="34.00" routeLength="347.43" waitingTime="3.00" waitingCount="1" stopTime="0.00" timeLoss="8.67" rerouteNo="0" devices="vehroute_flow_9_phase1_E_straight.5 tripinfo_flow_9_phase1_E_straight.5" vType="moto" speedFactor="1.00" vaporized=""/>
    <tripinfo id="flow_9_phase1_E_straight.4" depart="52.00" departLane="E_in_1" departPos="23.57" departSpeed="9.43" departDelay="0.49" arrival="105.00" arrivalLane="W_out_0" arrivalPos="189.60" arrivalSpeed="12.86" duration="53.00" routeLength="376.43" waitingTime="10.00" waitingCount="1" stopTime="0.00" timeLoss="23.63" rerouteNo="0" devices="vehroute_flow_9_phase1_E_straight.4 tripinfo_flow_9_phase1_E_straight.4" vType="bus" speedFactor="0.95" vaporized=""/>
    <tripinfo id="flow_10_phase1_E_left.1" depart="34.00" departLane="W_in_0" departPos="4.52" departSpeed="10.41" departDelay="0.50" arrival="107.00" arrivalLane="S_out_0" arrivalPos="189.60" arrivalSpeed="10.48" duration="73.00" routeLength="383.71" waitingTime="17.00" waitingCount="2" stopTime="0.00" timeLoss="35.65" rerouteNo="0" devices="vehroute_flow_10_phase1_E_left.1 tripinfo_flow_10_phase1_E_left.1" vType="truck" speedFactor="0.77" vaporized=""/>
    <tripinfo id="flow_5_phase1_S_straight.2" depart="27.00" departLane="W_in_1" departPos="12.70" departSpeed="12.41" departDelay="0.54" arrival="108.00" arrivalLane="N_out_1" arrivalPos="189.60" arrivalSpeed="12.87" duration="81.00" routeLength="385.85" waitingTime="29.00" waitingCount="4" stopTime="0.00" timeLoss="51.12" rerouteNo="0" devices="vehroute_flow_5_phase1_S_straight.2 tripinfo_flow_5_phase1_S_straight.2" vType="moto" speedFactor="0.96" vaporized=""/>
    <tripinfo id="flow_13_phase1_W_straight.4" depart="54.00" departLane="W_in_1" departPos="128.04" departSpeed="0.51" departDelay="0.46" arrival="108.00" arrivalLane="E_out_0" arrivalPos="189.60" arrivalSpeed="11.99" duration="54.00" routeLength="271.96" waitingTime="7.00" waitingCount="1" stopTime="0.00" timeLoss="31.07" rerouteNo="0" devices="vehroute_flow_13_phase1_W_straight.4 tripinfo_flow_13_phase1_W_straight.4" vType="bus" speedFactor="0.87" vaporized=""/>
    <tripinfo id="flow_3_phase1_N_right.2" depart="69.00" departLane="N_in_0" departPos="69.49" departSpeed="6.82" departDelay="0.63" arrival="109.00" arrivalLane="W_out_0" arrivalPos="189.60" arrivalSpeed="15.22" duration="40.00" routeLength="318.74" waitingTime="11.00" waitingCount="1" stopTime="0.00" timeLoss="18.66" rerouteNo="0" devices="vehroute_flow_3_phase1_N_right.2 tripinfo_flow_3_phase1_N_right.2" vType="moto" speedFactor="1.10" vaporized=""/>
    <tripinfo id="flow_12_phase1_E_uturn.1" depart="66.00" departLane="N_in_1" departPos="91.52" departSpeed="12.51" departDelay="0.19" arrival="112.00" arrivalLane="N_out_1" arrivalPos="189.60" arrivalSpeed="12.62" duration="46.00" routeLength="292.35" waitingTime="13.00" waitingCount="1" stopTime="0.00" timeLoss="22.44" rerouteNo="0" devices="vehroute_flow_12_phase1_E_uturn.1 tripinfo_flow_12_phase1_E_uturn.1" vType="moto" speedFactor="0.95" vaporized=""/>
    <tripinfo id="flow_4_phase1_N_uturn.1" depart="67.00" departLane="N_in_0" departPos="64.25" departSpeed="6.13" departDelay="0.96" arrival="114.00" arrivalLane="E_out_1" arrivalPos="189.60" arrivalSpeed="11.90" duration="47.00" routeLength="334.30" waitingTime="11.00" waitingCount="1" stopTime="0.00" timeLoss="20.06" rerouteNo="0" devices="vehroute_flow_4_phase1_N_uturn.1 tripinfo_flow_4_phase1_N_uturn.1" vType="moto" speedFactor="0.94" vaporized=""/>
    <tripinfo id="flow_1_phase1_N_straight.6" depart="82.00" departLane="N_in_1" departPos="41.83" departSpeed="12.81" departDelay="0.90" arrival="114.00" arrivalLane="S_out_1" arrivalPos="189.60" arrivalSpeed="12.52" duration="32.00" routeLength="358.17" waitingTime="0.00" waitingCount="0" stopTime="0.00" timeLoss="5.64" rerouteNo="0" devices="vehroute_flow_1_phase1_N_straight.6 tripinfo_flow_1_phase1_N_straight.6" vType="car" speedFactor="0.98" vaporized=""/>
    <tripinfo id="flow_1_phase1_N_straight.5" depart="68.00" departLane="N_in_1" departPos="61.32" departSpeed="1.92" departDelay="0.42" arrival="115.00" arrivalLane="S_out_0" arrivalPos="189.60" arrivalSpeed="12.13" duration="47.00" routeLength="338.68" waitingTime="6.00" waitingCount="2" stopTime="0.00" timeLoss="19.24" rerouteNo="0" devices="vehroute_flow_1_phase1_N_straight.5 tripinfo_flow_1_phase1_N_straight.5" vType="moto" speedFactor="0.90" vaporized=""/>
    <tripinfo id="flow_11_phase1_E_right.3" depart="98.00" departLane="S_in_1" departPos="140.12" departSpeed="9.18" departDelay="0.53" arrival="122.00" arrivalLane="N_out_0" arrivalPos="189.60" arrivalSpeed="11.06" duration="24.00" routeLength="259.88" waitingTime="0.00" waitingCount="0" stopTime="0.00" timeLoss="1.32" rerouteNo="0" devices="vehroute_flow_11_phase1_E_right.3 tripinfo_flow_11_phase1_E_right.3" vType="moto" speedFactor="0.83" vaporized=""/>
    <tripinfo id="flow_1_phase1_N_straight.7" depart="95.00" departLane="N_in_1" departPos="86.40" departSpeed="1.76" departDelay="0.39" arrival="123.00" arrivalLane="S_out_0" arrivalPos="189.60" arrivalSpeed="14.11" duration="28.00" routeLength="313.60" waitingTime="0.00" waitingCount="0" stopTime="0.00" timeLoss="6.27" rerouteNo="0" devices="vehroute_flow_1_phase1_N_straight.7 tripinfo_flow_1_phase1_N_straight.7" vType="moto" speedFactor="1.06" vaporized=""/>
    <tripinfo id="flow_2_phase1_N_left.3" depart="99.00" departLane="N_in_1" departPos="186.24" departSpeed="2.35" departDelay="0.96" arrival="126.00" arrivalLane="E_out_1" arrivalPos="189.60" arrivalSpeed="11.79" duration="27.00" routeLength="212.31" waitingTime="1.00" waitingCount="1" stopTime="0.00" timeLoss="8.10" rerouteNo="0" devices="vehroute_flow_2_phase1_N_left.3 tripinfo_flow_2_phase1_N_left.3" vType="moto" speedFactor="0.89" vaporized=""/>
    <tripinfo id="flow_9_phase1_E_straight.6" depart="78.00" departLane="E_in_0" departPos="43.18" departSpeed="3.20" departDelay="0.74" arrival="134.00" arrivalLane="W_out_1" arrivalPos="189.60" arrivalSpeed="13.13" duration="56.00" routeLength="356.82" waitingTime="22.00" waitingCount="1" stopTime="0.00" timeLoss="30.63" rerouteNo="0" devices="vehroute_flow_9_phase1_E_straight.6 tripinfo_flow_9_phase1_E_straight.6" vType="moto" speedFactor="1.02" vaporized=""/>
    <tripinfo id="flow_7_phase1_S_right.3" depart="98.00" departLane="E_in_1" departPos="16.13" departSpeed="8.74" departDelay="0.52" arrival="134.00" arrivalLane="N_out_0" arrivalPos="189.60" arrivalSpeed="13.88" duration="36.00" routeLength="372.10" waitingTime="4.00" waitingCount="1" stopTime="0.00" timeLoss="10.51" rerouteNo="0" devices="vehroute_flow_7_phase1_S_right.3 tripinfo_flow_7_phase1_S_right.3" vType="moto" speedFactor="1.07" vaporized=""/>
    <tripinfo id="flow_9_phase1_E_straight.7" depart="91.00" departLane="E_in_1" departPos="150.35" departSpeed="7.97" departDelay="0.86" arrival="135.00" arrivalLane="W_out_0" arrivalPos="189.60" arrivalSpeed="13.71" duration="44.00" routeLength="249.65" waitingTime="17.00" waitingCount="1" stopTime="0.00" timeLoss="25.33" rerouteNo="0" devices="vehroute_flow_9_phase1_E_straight.7 tripinfo_flow_9_phase1_E_straight.7" vType="moto" speedFactor="1.01" vaporized=""/>
    <tripinfo id="flow_9_phase1_E_straight.8" depart="104.00" departLane="E_in_1" departPos="84.74" departSpeed="3.45" departDelay="0.98" arrival="137.00" arrivalLane="W_out_1" arrivalPos="189.60" arrivalSpeed="12.22" duration="33.00" routeLength="315.26" waitingTime="0.00" waitingCount="0" stopTime="0.00" timeLoss="8.37" rerouteNo="0" devices="vehroute_flow_9_phase1_E_straight.8 tripinfo_flow_9_phase1_E_straight.8" vType="moto" speedFactor="0.94" vaporized=""/>
    <tripinfo id="flow_8_phase1_S_uturn.1" depart="66.00" departLane="W_in_0" departPos="104.14" departSpeed="12.34" departDelay="0.07" arrival="138.00" arrivalLane="E_out_0" arrivalPos="189.60" arrivalSpeed="12.53" duration="72.00" routeLength="295.86" waitingTime="27.00" waitingCount="2" stopTime="0.00" timeLoss="49.12" rerouteNo="0" devices="vehroute_flow_8_phase1_S_uturn.1 tripinfo_flow_8_phase1_S_uturn.1" vType="truck" speedFactor="0.94" vaporized=""/>
    <tripinfo id="flow_10_phase1_E_left.2" depart="67.00" departLane="W_in_1" departPos="74.60" departSpeed="12.62" departDelay="0.00" arrival="140.00" arrivalLane="S_out_1" arrivalPos="189.60" arrivalSpeed="14.57" duration="73.00" routeLength="313.63" waitingTime="25.00" waitingCount="2" stopTime="0.00" timeLoss="50.50" rerouteNo="0" devices="vehroute_flow_10_phase1_E_left.2 tripinfo_flow_10_phase1_E_left.2" vType="moto" speedFactor="1.07" vaporized=""/>
    <tripinfo id="flow_6_phase1_S_left.2" depart="67.00" departLane="W_in_0" departPos="78.09" departSpeed="11.28" departDelay="0.10" arrival="141.00" arrivalLane="S_out_0" arrivalPos="189.60" arrivalSpeed="12.10" duration="74.00" routeLength="310.14" waitingTime="26.00" waitingCount="2" stopTime="0.00" timeLoss="47.97" rerouteNo="0" devices="vehroute_flow_6_phase1_S_left.2 tripinfo_flow_6_phase1_S_left.2" vType="truck" speedFactor="0.89" vaporized=""/>
    <tripinfo id="flow_1_phase1_N_straight.8" depart="109.00" departLane="N_in_0" departPos="174.11" departSpeed="0.43" departDelay="0.87" arrival="150.00" arrivalLane="S_out_0" arrivalPos="189.60" arrivalSpeed="12.96" duration="41.00" routeLength="225.89" waitingTime="14.00" waitingCount="1" stopTime="0.00" timeLoss="24.02" rerouteNo="0" devices="vehroute_flow_1_phase1_N_straight.8 tripinfo_flow_1_phase1_N_straight.8" vType="moto" speedFactor="0.97" vaporized=""/>
    <tripinfo id="flow_3_phase1_N_right.3" depart="103.00" departLane="N_in_0" departPos="35.64" departSpeed="3.09" departDelay="0.45" arrival="152.00" arrivalLane="W_out_0" arrivalPos="189.60" arrivalSpeed="12.18" duration="49.00" routeLength="352.59" waitingTime="10.00" waitingCount="1" stopTime="0.00" timeLoss="21.34" rerouteNo="0" devices="vehroute_flow_3_phase1_N_right.3 tripinfo_flow_3_phase1_N_right.3" vType="moto" speedFactor="0.96" vaporized=""/>
    <tripinfo id="flow_14_phase1_W_left.1" depart="35.00" departLane="W_in_0" departPos="80.60" departSpeed="9.59" departDelay="0.53" arrival="153.00" arrivalLane="N_out_0" arrivalPos="189.60" arrivalSpeed="12.09" duration="118.00" routeLength="317.95" waitingTime="52.00" waitingCount="5" stopTime="0.00" timeLoss="91.78" rerouteNo="0" devices="vehroute_flow_14_phase1_W_left.1 tripinfo_flow_14_phase1_W_left.1" vType="container" speedFactor="0.91" vaporized=""/>
    <tripinfo id="flow_2_phase1_N_left.4" depart="131.00" departLane="N_in_0" departPos="124.28" departSpeed="14.30" departDelay="0.28" arrival="154.00" arrivalLane="E_out_1" arrivalPos="189.60" arrivalSpeed="14.81" duration="23.00" routeLength="274.27" waitingTime="0.00" waitingCount="0" stopTime="0.00" timeLoss="5.15" rerouteNo="0" devices="vehroute_flow_2_phase1_N_left.4 tripinfo_flow_2_phase1_N_left.4" vType="moto" speedFactor="1.16" vaporized=""/>
    <tripinfo id="flow_1_phase1_N_straight.9" depart="122.00" departLane="N_in_1" departPos="90.82" departSpeed="10.71" departDelay="0.36" arrival="157.00" arrivalLane="S_out_1" arrivalPos="189.60" arrivalSpeed="13.22" duration="35.00" routeLength="309.18" waitingTime="0.00" waitingCount="0" stopTime="0.00" timeLoss="11.71" rerouteNo="0" devices="vehroute_flow_1_phase1_N_straight.9 tripinfo_flow_1_phase1_N_straight.9" vType="truck" speedFactor="0.97" vaporized=""/>
    <tripinfo id="flow_9_phase1_E_straight.10" depart="129.00" departLane="E_in_1" departPos="168.32" departSpeed="5.29" departDelay="0.23" arrival="159.00" arrivalLane="W_out_1" arrivalPos="189.60" arrivalSpeed="14.84" duration="30.00" routeLength="231.68" waitingTime="6.00" waitingCount="1" stopTime="0.00" timeLoss="14.20" rerouteNo="0" devices="vehroute_flow_9_phase1_E_straight.10 tripinfo_flow_9_phase1_E_straight.10" vType="moto" speedFactor="1.12" vaporized=""/>