<?xml version="1.0" encoding="UTF-8"?>

<!-- generated on 2025-12-08 21:39:10 by Eclipse SUMO sumo Version 1.18.0
<configuration xmlns:xsi="http://www.w3.org/2001/XMLSchema-instance" xsi:noNamespaceSchemaLocation="http://sumo.dlr.de/xsd/sumoConfiguration.xsd">

    <input>
        <net-file value="nets/60p2k/net.net.xml"/>
        <route-files value="nets/60p2k/route_temp_281_124147880884016_33742306.rou.xml"/>
    </input>

    <output>
        <summary-output value="result_ddqn_1.9_0.4/summary_ep_1.xml"/>
        <tripinfo-output value="result_ddqn_1.9_0.4/tripinfo_ep_1.xml"/>
        <vehroute-output value="result_ddqn_1.9_0.4/vehroute_ep_1.xml"/>
    </output>

    <time>
        <begin value="0"/>
    </time>

    <report>
        <verbose value="true"/>
        <no-warnings value="true"/>
        <no-step-log value="true"/>
    </report>

    <traci_server>
        <remote-port value="54485"/>
    </traci_server>

    <gui_only>
        <gui-settings-file value="nets/60p2k/gui-settings.xml"/>
        <quit-on-end value="true"/>
    </gui_only>

</configuration>
-->

<tripinfos xmlns:xsi="http://www.w3.org/2001/XMLSchema-instance" xsi:noNamespaceSchemaLocation="http://sumo.dlr.de/xsd/tripinfo_file.xsd">
    <tripinfo id="flow_8_phase1_S_uturn.0" depart="0.00" departLane="S_in_0" departPos="178.04" departSpeed="8.03" departDelay="0.00" arrival="19.00" arrivalLane="S_out_1" arrivalPos="189.60" arrivalSpeed="13.46" duration="19.00" routeLength="205.83" waitingTime="0.00" waitingCount="0" stopTime="0.00" timeLoss="4.05" rerouteNo="0" devices="vehroute_flow_8_phase1_S_uturn.0 tripinfo_flow_8_phase1_S_uturn.0" vType="moto" speedFactor="1.05" vaporized=""/>
    <tripinfo id="flow_5_phase1_S_straight.0" depart="0.00" departLane="S_in_1" departPos="107.37" departSpeed="7.21" departDelay="0.00" arrival="21.00" arrivalLane="N_out_1" arrivalPos="189.60" arrivalSpeed="15.89" duration="21.00" routeLength="292.63" waitingTime="0.00" waitingCount="0" stopTime="0.00" timeLoss="1.72" rerouteNo="0" devices="vehroute_flow_5_phase1_S_straight.0 tripinfo_flow_5_phase1_S_straight.0" vType="moto" speedFactor="1.15" vaporized=""/>
    <tripinfo id="flow_14_phase1_W_left.0" depart="0.00" departLane="N_in_1" departPos="50.07" departSpeed="13.54" departDelay="0.00" arrival="26.00" arrivalLane="S_out_1" arrivalPos="189.60" arrivalSpeed="13.13" duration="26.00" routeLength="349.93" waitingTime="0.00" waitingCount="0" stopTime="0.00" timeLoss="0.99" rerouteNo="0" devices="vehroute_flow_14_phase1_W_left.0 tripinfo_flow_14_phase1_W_left.0" vType="moto" speedFactor="1.01" vaporized=""/>
    <tripinfo id="flow_2_phase1_N_left.0" depart="0.00" departLane="N_in_1" departPos="8.27" departSpeed="8.33" departDelay="0.00" arrival="31.00" arrivalLane="E_out_1" arrivalPos="189.60" arrivalSpeed="13.67" duration="31.00" routeLength="390.28" waitingTime="0.00" waitingCount="0" stopTime="0.00" timeLoss="2.65" rerouteNo="0" devices="vehroute_flow_2_phase1_N_left.0 tripinfo_flow_2_phase1_N_left.0" vType="moto" speedFactor="1.02" vaporized=""/>
    <tripinfo id="flow_7_phase1_S_right.0" depart="0.00" departLane="S_in_0" departPos="97.26" departSpeed="8.07" departDelay="0.00" arrival="31.00" arrivalLane="E_out_0" arrivalPos="189.60" arrivalSpeed="11.56" duration="31.00" routeLength="290.97" waitingTime="0.00" waitingCount="0" stopTime="0.00" timeLoss="5.39" rerouteNo="0" devices="vehroute_flow_7_phase1_S_right.0 tripinfo_flow_7_phase1_S_right.0" vType="container" speedFactor="0.85" vaporized=""/>
    <tripinfo id="flow_12_phase1_E_uturn.0" depart="0.00" departLane="E_in_1" departPos="129.89" departSpeed="0.43" departDelay="0.00" arrival="36.00" arrivalLane="E_out_1" arrivalPos="189.60" arrivalSpeed="11.18" duration="36.00" routeLength="253.98" waitingTime="8.00" waitingCount="1" stopTime="0.00" timeLoss="17.37" rerouteNo="0" devices="vehroute_flow_12_phase1_E_uturn.0 tripinfo_flow_12_phase1_E_uturn.0" vType="moto" speedFactor="1.03" vaporized=""/>
    <tripinfo id="flow_15_phase1_W_right.0" depart="0.00" departLane="W_in_1" departPos="108.38" departSpeed="1.98" departDelay="0.00" arrival="39.00" arrivalLane="S_out_0" arrivalPos="189.60" arrivalSpeed="10.73" duration="39.00" routeLength="279.85" waitingTime="3.00" waitingCount="2" stopTime="0.00" timeLoss="13.90" rerouteNo="0" devices="vehroute_flow_15_phase1_W_right.0 tripinfo_flow_15_phase1_W_right.0" vType="moto" speedFactor="0.85" vaporized=""/>
    <tripinfo id="flow_11_phase1_E_right.0" depart="0.00" departLane="E_in_1" departPos="30.17" departSpeed="10.18" departDelay="0.00" arrival="40.00" arrivalLane="N_out_0" arrivalPos="189.60" arrivalSpeed="13.12" duration="40.00" routeLength="358.06" waitingTime="2.00" waitingCount="1" stopTime="0.00" timeLoss="11.98" rerouteNo="0" devices="vehroute_flow_11_phase1_E_right.0 tripinfo_flow_11_phase1_E_right.0" vType="bus" speedFactor="0.96" vaporized=""/>
    <tripinfo id="flow_13_phase1_W_straight.0" depart="0.00" departLane="W_in_0" departPos="23.77" departSpeed="1.48" departDelay="0.00" arrival="41.00" arrivalLane="E_out_0" arrivalPos="189.60" arrivalSpeed="11.14" duration="41.00" routeLength="376.23" waitingTime="0.00" waitingCount="0" stopTime="0.00" timeLoss="7.83" rerouteNo="0" devices="vehroute_flow_13_phase1_W_straight.0 tripinfo_flow_13_phase1_W_straight.0" vType="container" speedFactor="0.82" vaporized=""/>
    <tripinfo id="flow_9_phase1_E_straight.1" depart="13.00" departLane="E_in_0" departPos="113.04" departSpeed="11.45" departDelay="0.12" arrival="41.00" arrivalLane="W_out_1" arrivalPos="189.60" arrivalSpeed="15.73" duration="28.00" routeLength="286.96" waitingTime="0.00" waitingCount="0" stopTime="0.00" timeLoss="9.60" rerouteNo="0" devices="vehroute_flow_9_phase1_E_straight.1 tripinfo_flow_9_phase1_E_straight.1" vType="moto" speedFactor="1.16" vaporized=""/>
    <tripinfo id="flow_9_phase1_E_straight.0" depart="0.00" departLane="E_in_1" departPos="75.19" departSpeed="11.09" departDelay="0.00" arrival="42.00" arrivalLane="W_out_0" arrivalPos="189.60" arrivalSpeed="12.08" duration="42.00" routeLength="324.81" waitingTime="5.00" waitingCount="1" stopTime="0.00" timeLoss="15.66" rerouteNo="0" devices="vehroute_flow_9_phase1_E_straight.0 tripinfo_flow_9_phase1_E_straight.0" vType="truck" speedFactor="0.90" vaporized=""/>
    <tripinfo id="flow_13_phase1_W_straight.1" depart="14.00" departLane="W_in_1" departPos="121.65" departSpeed="2.86" departDelay="0.62" arrival="44.00" arrivalLane="E_out_0" arrivalPos="189.60" arrivalSpeed="15.12" duration="30.00" routeLength="278.35" waitingTime="0.00" waitingCount="0" stopTime="0.00" timeLoss="11.24" rerouteNo="0" devices="vehroute_flow_13_phase1_W_straight.1 tripinfo_flow_13_phase1_W_straight.1" vType="car" speedFactor="1.12" vaporized=""/>
    <tripinfo id="flow_16_phase1_W_uturn.0" depart="0.00" departLane="E_in_0" departPos="16.88" departSpeed="11.71" departDelay="0.00" arrival="47.00" arrivalLane="S_out_1" arrivalPos="189.60" arrivalSpeed="14.16" duration="47.00" routeLength="381.67" waitingTime="6.00" waitingCount="3" stopTime="0.00" timeLoss="19.79" rerouteNo="0" devices="vehroute_flow_16_phase1_W_uturn.0 tripinfo_flow_16_phase1_W_uturn.0" vType="moto" speedFactor="1.04" vaporized=""/>
    <tripinfo id="flow_5_phase1_S_straight.1" depart="14.00" departLane="S_in_1" departPos="31.93" departSpeed="9.28" departDelay="0.77" arrival="47.00" arrivalLane="N_out_0" arrivalPos="189.60" arrivalSpeed="15.64" duration="33.00" routeLength="368.07" waitingTime="0.00" waitingCount="0" stopTime="0.00" timeLoss="9.92" rerouteNo="0" devices="vehroute_flow_5_phase1_S_straight.1 tripinfo_flow_5_phase1_S_straight.1" vType="moto" speedFactor="1.19" vaporized=""/>
    <tripinfo id="flow_6_phase1_S_left.0" depart="0.00" departLane="W_in_1" departPos="166.01" departSpeed="0.74" departDelay="0.00" arrival="48.00" arrivalLane="N_out_1" arrivalPos="189.60" arrivalSpeed="11.52" duration="48.00" routeLength="232.54" waitingTime="17.00" waitingCount="2" stopTime="0.00" timeLoss="27.37" rerouteNo="0" devices="vehroute_flow_6_phase1_S_left.0 tripinfo_flow_6_phase1_S_left.0" vType="moto" speedFactor="0.88" vaporized=""/>
    <tripinfo id="flow_4_phase1_N_uturn.0" depart="0.00" departLane="W_in_1" departPos="127.60" departSpeed="0.08" departDelay="0.00" arrival="49.00" arrivalLane="N_out_1" arrivalPos="189.60" arrivalSpeed="11.63" duration="49.00" routeLength="270.95" waitingTime="13.00" waitingCount="2" stopTime="0.00" timeLoss="26.86" rerouteNo="0" devices="vehroute_flow_4_phase1_N_uturn.0 tripinfo_flow_4_phase1_N_uturn.0" vType="car" speedFactor="0.92" vaporized=""/>
    <tripinfo id="flow_1_phase1_N_straight.0" depart="0.00" departLane="S_in_0" departPos="8.62" departSpeed="8.51" departDelay="0.00" arrival="54.00" arrivalLane="W_out_1" arrivalPos="189.60" arrivalSpeed="11.57" duration="54.00" routeLength="389.93" waitingTime="11.00" waitingCount="1" stopTime="0.00" timeLoss="20.40" rerouteNo="0" devices="vehroute_flow_1_phase1_N_straight.0 tripinfo_flow_1_phase1_N_straight.0" vType="bus" speedFactor="0.86" vaporized=""/>
    <tripinfo id="flow_1_phase1_N_straight.1" depart="14.00" departLane="S_in_1" departPos="58.36" departSpeed="11.34" departDelay="0.48" arrival="57.00" arrivalLane="W_out_1" arrivalPos="189.60" arrivalSpeed="11.72" duration="43.00" routeLength="340.19" waitingTime="5.00" waitingCount="1" stopTime="0.00" timeLoss="13.50" rerouteNo="0" devices="vehroute_flow_1_phase1_N_straight.1 tripinfo_flow_1_phase1_N_straight.1" vType="moto" speedFactor="0.87" vaporized=""/>
    <tripinfo id="flow_1_phase1_N_straight.2" depart="28.00" departLane="S_in_1" departPos="107.53" departSpeed="1.11" departDelay="0.97" arrival="58.00" arrivalLane="W_out_1" arrivalPos="189.60" arrivalSpeed="12.59" duration="30.00" routeLength="291.02" waitingTime="0.00" waitingCount="0" stopTime="0.00" timeLoss="6.40" rerouteNo="0" devices="vehroute_flow_1_phase1_N_straight.2 tripinfo_flow_1_phase1_N_straight.2" vType="moto" speedFactor="0.93" vaporized=""/>
    <tripinfo id="flow_9_phase1_E_straight.2" depart="26.00" departLane="E_in_1" departPos="52.87" departSpeed="0.38" departDelay="0.25" arrival="62.00" arrivalLane="W_out_0" arrivalPos="189.60" arrivalSpeed="13.61" duration="36.00" routeLength="347.13" waitingTime="0.00" waitingCount="0" stopTime="0.00" timeLoss="10.84" rerouteNo="0" devices="vehroute_flow_9_phase1_E_straight.2 tripinfo_flow_9_phase1_E_straight.2" vType="moto" speedFactor="0.99" vaporized=""/>
    <tripinfo id="flow_11_phase1_E_right.1" depart="33.00" departLane="E_in_1" departPos="80.24" departSpeed="3.06" departDelay="0.51" arrival="62.00" arrivalLane="N_out_0" arrivalPos="189.60" arrivalSpeed="14.14" duration="29.00" routeLength="307.99" waitingTime="0.00" waitingCount="0" stopTime="0.00" timeLoss="6.96" rerouteNo="0" devices="vehroute_flow_11_phase1_E_right.1 tripinfo_flow_11_phase1_E_right.1" vType="moto" speedFactor="1.04" vaporized=""/>
    <tripinfo id="flow_15_phase1_W_right.1" depart="33.00" departLane="W_in_1" departPos="97.23" departSpeed="5.84" departDelay="0.16" arrival="67.00" arrivalLane="S_out_0" arrivalPos="189.60" arrivalSpeed="14.38" duration="34.00" routeLength="291.00" waitingTime="5.00" waitingCount="1" stopTime="0.00" timeLoss="13.90" rerouteNo="0" devices="vehroute_flow_15_phase1_W_right.1 tripinfo_flow_15_phase1_W_right.1" vType="moto" speedFactor="1.08" vaporized=""/>
    <tripinfo id="flow_13_phase1_W_straight.2" depart="27.00" departLane="W_in_1" departPos="59.51" departSpeed="13.32" departDelay="0.23" arrival="68.00" arrivalLane="E_out_0" arrivalPos="189.60" arrivalSpeed="13.32" duration="41.00" routeLength="340.49" waitingTime="5.00" waitingCount="1" stopTime="0.00" timeLoss="14.67" rerouteNo="0" devices="vehroute_flow_13_phase1_W_straight.2 tripinfo_flow_13_phase1_W_straight.2" vType="bus" speedFactor="0.97" vaporized=""/>
    <tripinfo id="flow_9_phase1_E_straight.3" depart="39.00" departLane="E_in_0" departPos="86.42" departSpeed="8.41" departDelay="0.37" arrival="68.00" arrivalLane="W_out_0" arrivalPos="189.60" arrivalSpeed="11.80" duration="29.00" routeLength="313.58" waitingTime="0.00" waitingCount="0" stopTime="0.00" timeLoss="1.81" rerouteNo="0" devices="vehroute_flow_9_phase1_E_straight.3 tripinfo_flow_9_phase1_E_straight.3" vType="bus" speedFactor="0.85" vaporized=""/>
    <tripinfo id="flow_3_phase1_N_right.0" depart="0.00" departLane="W_in_0" departPos="103.38" departSpeed="3.75" departDelay="0.00" arrival="70.00" arrivalLane="N_out_1" arrivalPos="189.60" arrivalSpeed="15.05" duration="70.00" routeLength="295.17" waitingTime="24.00" waitingCount="4" stopTime="0.00" timeLoss="49.09" rerouteNo="0" devices="vehroute_flow_3_phase1_N_right.0 tripinfo_flow_3_phase1_N_right.0" vType="car" speedFactor="1.09" vaporized=""/>
    <tripinfo id="flow_10_phase1_E_left.0" depart="0.00" departLane="E_in_0" departPos="6.15" departSpeed="3.34" departDelay="0.00" arrival="75.00" arrivalLane="S_out_1" arrivalPos="189.60" arrivalSpeed="13.90" duration="75.00" routeLength="392.40" waitingTime="22.00" waitingCount="2" stopTime="0.00" timeLoss="46.31" rerouteNo="0" devices="vehroute_flow_10_phase1_E_left.0 tripinfo_flow_10_phase1_E_left.0" vType="truck" speedFactor="1.02" vaporized=""/>
    <tripinfo id="flow_5_phase1_S_straight.3" depart="40.00" departLane="S_in_0" departPos="184.19" departSpeed="8.58" departDelay="0.31" arrival="75.00" arrivalLane="N_out_0" arrivalPos="189.60" arrivalSpeed="14.35" duration="35.00" routeLength="215.81" waitingTime="14.00" waitingCount="1" stopTime="0.00" timeLoss="20.09" rerouteNo="0" devices="vehroute_flow_5_phase1_S_straight.3 tripinfo_flow_5_phase1_S_straight.3" vType="moto" speedFactor="1.08" vaporized=""/>
    <tripinfo id="flow_5_phase1_S_straight.2" depart="27.00" departLane="S_in_1" departPos="12.70" departSpeed="12.41" departDelay="0.54" arrival="77.00" arrivalLane="N_out_1" arrivalPos="189.60" arrivalSpeed="12.58" duration="50.00" routeLength="387.30" waitingTime="13.00" waitingCount="1" stopTime="0.00" timeLoss="20.30" rerouteNo="0" devices="vehroute_flow_5_phase1_S_straight.2 tripinfo_flow_5_phase1_S_straight.2" vType="moto" speedFactor="0.96" vaporized=""/>
    <tripinfo id="flow_1_phase1_N_straight.3" depart="41.00" departLane="S_in_0" departPos="65.01" departSpeed="6.58" departDelay="0.45" arrival="82.00" arrivalLane="W_out_1" arrivalPos="189.60" arrivalSpeed="15.49" duration="41.00" routeLength="333.54" waitingTime="8.00" waitingCount="2" stopTime="0.00" timeLoss="19.66" rerouteNo="0" devices="vehroute_flow_1_phase1_N_straight.3 tripinfo_flow_1_phase1_N_straight.3" vType="moto" speedFactor="1.20" vaporized=""/>
    <tripinfo id="flow_2_phase1_N_left.1" depart="33.00" departLane="N_in_0" departPos="8.88" departSpeed="2.82" departDelay="0.32" arrival="83.00" arrivalLane="E_out_1" arrivalPos="189.60" arrivalSpeed="15.32" duration="50.00" routeLength="389.67" waitingTime="11.00" waitingCount="2" stopTime="0.00" timeLoss="24.09" rerouteNo="0" devices="vehroute_flow_2_phase1_N_left.1 tripinfo_flow_2_phase1_N_left.1" vType="moto" speedFactor="1.12" vaporized=""/>
    <tripinfo id="flow_7_phase1_S_right.1" depart="33.00" departLane="S_in_1" departPos="66.71" departSpeed="7.87" departDelay="0.51" arrival="85.00" arrivalLane="E_out_0" arrivalPos="189.60" arrivalSpeed="10.72" duration="52.00" routeLength="321.52" waitingTime="10.00" waitingCount="1" stopTime="0.00" timeLoss="21.67" rerouteNo="0" devices="vehroute_flow_7_phase1_S_right.1 tripinfo_flow_7_phase1_S_right.1" vType="container" speedFactor="0.78" vaporized=""/>
    <tripinfo id="flow_14_phase1_W_left.1" depart="35.00" departLane="N_in_0" departPos="93.41" departSpeed="11.76" departDelay="0.53" arrival="85.00" arrivalLane="S_out_0" arrivalPos="189.60" arrivalSpeed="12.56" duration="50.00" routeLength="306.59" waitingTime="11.00" waitingCount="1" stopTime="0.00" timeLoss="25.01" rerouteNo="0" devices="vehroute_flow_14_phase1_W_left.1 tripinfo_flow_14_phase1_W_left.1" vType="container" speedFactor="0.91" vaporized=""/>
    <tripinfo id="flow_7_phase1_S_right.2" depart="65.00" departLane="S_in_1" departPos="160.30" departSpeed="9.06" departDelay="0.01" arrival="88.00" arrivalLane="E_out_0" arrivalPos="189.60" arrivalSpeed="14.18" duration="23.00" routeLength="227.93" waitingTime="0.00" waitingCount="0" stopTime="0.00" timeLoss="5.73" rerouteNo="0" devices="vehroute_flow_7_phase1_S_right.2 tripinfo_flow_7_phase1_S_right.2" vType="moto" speedFactor="1.03" vaporized=""/>
    <tripinfo id="flow_5_phase1_S_straight.4" depart="53.00" departLane="S_in_0" departPos="135.24" departSpeed="1.68" departDelay="0.08" arrival="94.00" arrivalLane="N_out_0" arrivalPos="189.60" arrivalSpeed="13.22" duration="41.00" routeLength="264.76" waitingTime="2.00" waitingCount="1" stopTime="0.00" timeLoss="20.81" rerouteNo="0" devices="vehroute_flow_5_phase1_S_straight.4 tripinfo_flow_5_phase1_S_straight.4" vType="container" speedFactor="0.97" vaporized=""/>
    <tripinfo id="flow_2_phase1_N_left.2" depart="66.00" departLane="N_in_1" departPos="129.09" departSpeed="5.80" departDelay="0.64" arrival="94.00" arrivalLane="E_out_1" arrivalPos="189.60" arrivalSpeed="14.51" duration="28.00" routeLength="269.46" waitingTime="3.00" waitingCount="1" stopTime="0.00" timeLoss="9.04" rerouteNo="0" devices="vehroute_flow_2_phase1_N_left.2 tripinfo_flow_2_phase1_N_left.2" vType="emergency" speedFactor="1.10" vaporized=""/>
    <tripinfo id="flow_1_phase1_N_straight.4" depart="55.00" departLane="S_in_1" departPos="74.07" departSpeed="0.54" departDelay="0.94" arrival="95.00" arrivalLane="W_out_1" arrivalPos="189.60" arrivalSpeed="12.46" duration="40.00" routeLength="324.48" waitingTime="0.00" waitingCount="0" stopTime="0.00" timeLoss="13.97" rerouteNo="0" devices="vehroute_flow_1_phase1_N_straight.4 tripinfo_flow_1_phase1_N_straight.4" vType="truck" speedFactor="0.92" vaporized=""/>
    <tripinfo id="flow_13_phase1_W_straight.3" depart="41.00" departLane="W_in_1" departPos="88.42" departSpeed="1.48" departDelay="0.85" arrival="98.00" arrivalLane="E_out_0" arrivalPos="189.60" arrivalSpeed="13.36" duration="57.00" routeLength="311.58" waitingTime="23.00" waitingCount="1" stopTime="0.00" timeLoss="34.83" rerouteNo="0" devices="vehroute_flow_13_phase1_W_straight.3 tripinfo_flow_13_phase1_W_straight.3" vType="car" speedFactor="1.05" vaporized=""/>
    <tripinfo id="flow_11_phase1_E_right.2" depart="65.00" departLane="E_in_1" departPos="111.69" departSpeed="6.85" departDelay="0.02" arrival="100.00" arrivalLane="N_out_0" arrivalPos="189.60" arrivalSpeed="15.42" duration="35.00" routeLength="276.54" waitingTime="7.00" waitingCount="1" stopTime="0.00" timeLoss="17.20" rerouteNo="0" devices="vehroute_flow_11_phase1_E_right.2 tripinfo_flow_11_phase1_E_right.2" vType="moto" speedFactor="1.14" vaporized=""/>
    <tripinfo id="flow_9_phase1_E_straight.4" depart="52.00" departLane="E_in_1" departPos="53.32" departSpeed="10.34" departDelay="0.49" arrival="103.00" arrivalLane="W_out_0" arrivalPos="189.60" arrivalSpeed="12.70" duration="51.00" routeLength="346.68" waitingTime="11.00" waitingCount="1" stopTime="0.00" timeLoss="24.32" rerouteNo="0" devices="vehroute_flow_9_phase1_E_straight.4 tripinfo_flow_9_phase1_E_straight.4" vType="bus" speedFactor="0.95" vaporized=""/>
    <tripinfo id="flow_9_phase1_E_straight.5" depart="65.00" departLane="E_in_1" departPos="65.33" departSpeed="12.53" departDelay="0.62" arrival="105.00" arrivalLane="W_out_0" arrivalPos="189.60" arrivalSpeed="12.66" duration="40.00" routeLength="334.67" waitingTime="8.00" waitingCount="1" stopTime="0.00" timeLoss="15.56" rerouteNo="0" devices="vehroute_flow_9_phase1_E_straight.5 tripinfo_flow_9_phase1_E_straight.5" vType="moto" speedFactor="1.00" vaporized=""/>
    <tripinfo id="flow_13_phase1_W_straight.4" depart="54.00" departLane="W_in_0" departPos="70.46" departSpeed="10.65" departDelay="0.46" arrival="106.00" arrivalLane="E_out_0" arrivalPos="189.60" arrivalSpeed="11.48" duration="52.00" routeLength="329.54" waitingTime="15.00" waitingCount="1" stopTime="0.00" timeLoss="24.67" rerouteNo="0" devices="vehroute_flow_13_phase1_W_straight.4 tripinfo_flow_13_phase1_W_straight.4" vType="bus" speedFactor="0.87" vaporized=""/>
    <tripinfo id="flow_15_phase1_W_right.2" depart="66.00" departLane="W_in_1" departPos="2.77" departSpeed="6.78" departDelay="0.32" arrival="107.00" arrivalLane="S_out_0" arrivalPos="189.60" arrivalSpeed="11.50" duration="41.00" routeLength="385.46" waitingTime="0.00" waitingCount="0" stopTime="0.00" timeLoss="9.09" rerouteNo="0" devices="vehroute_flow_15_phase1_W_right.2 tripinfo_flow_15_phase1_W_right.2" vType="moto" speedFactor="0.89" vaporized=""/>
    <tripinfo id="flow_3_phase1_N_right.1" depart="35.00" departLane="W_in_0" departPos="166.00" departSpeed="1.28" departDelay="0.82" arrival="110.00" arrivalLane="N_out_1" arrivalPos="189.60" arrivalSpeed="11.69" duration="75.00" routeLength="232.55" waitingTime="46.00" waitingCount="3" stopTime="0.00" timeLoss="55.17" rerouteNo="0" devices="vehroute_flow_3_phase1_N_right.1 tripinfo_flow_3_phase1_N_right.1" vType="moto" speedFactor="0.88" vaporized=""/>
    <tripinfo id="flow_5_phase1_S_straight.5" depart="67.00" departLane="S_in_1" departPos="65.57" departSpeed="2.39" departDelay="0.85" arrival="111.00" arrivalLane="N_out_0" arrivalPos="189.60" arrivalSpeed="13.25" duration="44.00" routeLength="334.43" waitingTime="10.00" waitingCount="1" stopTime="0.00" timeLoss="20.15" rerouteNo="0" devices="vehroute_flow_5_phase1_S_straight.5 tripinfo_flow_5_phase1_S_straight.5" vType="moto" speedFactor="1.03" vaporized=""/>
    <tripinfo id="flow_6_phase1_S_left.1" depart="34.00" departLane="W_in_1" departPos="79.10" departSpeed="8.50" departDelay="0.55" arrival="112.00" arrivalLane="N_out_1" arrivalPos="189.60" arrivalSpeed="13.72" duration="78.00" routeLength="319.45" waitingTime="38.00" waitingCount="3" stopTime="0.00" timeLoss="54.71" rerouteNo="0" devices="vehroute_flow_6_phase1_S_left.1 tripinfo_flow_6_phase1_S_left.1" vType="moto" speedFactor="1.05" vaporized=""/>
    <tripinfo id="flow_14_phase1_W_left.2" depart="69.00" departLane="N_in_1" departPos="39.34" departSpeed="4.15" departDelay="0.06" arrival="112.00" arrivalLane="S_out_0" arrivalPos="189.60" arrivalSpeed="11.39" duration="43.00" routeLength="360.66" waitingTime="6.00" waitingCount="1" stopTime="0.00" timeLoss="14.06" rerouteNo="0" devices="vehroute_flow_14_phase1_W_left.2 tripinfo_flow_14_phase1_W_left.2" vType="car" speedFactor="0.90" vaporized=""/>
    <tripinfo id="flow_5_phase1_S_straight.6" depart="80.00" departLane="S_in_0" departPos="69.49" departSpeed="6.79" departDelay="0.62" arrival="112.00" arrivalLane="N_out_0" arrivalPos="189.60" arrivalSpeed="14.90" duration="32.00" routeLength="330.51" waitingTime="1.00" waitingCount="1" stopTime="0.00" timeLoss="10.27" rerouteNo="0" devices="vehroute_flow_5_phase1_S_straight.6 tripinfo_flow_5_phase1_S_straight.6" vType="moto" speedFactor="1.10" vaporized=""/>
    <tripinfo id="flow_10_phase1_E_left.1" depart="34.00" departLane="E_in_0" departPos="4.52" departSpeed="10.41" departDelay="0.50" arrival="115.00" arrivalLane="S_out_1" arrivalPos="189.60" arrivalSpeed="10.00" duration="81.00" routeLength="394.03" waitingTime="23.00" waitingCount="2" stopTime="0.00" timeLoss="42.62" rerouteNo="0" devices="vehroute_flow_10_phase1_E_left.1 tripinfo_flow_10_phase1_E_left.1" vType="truck" speedFactor="0.77" vaporized=""/>
    <tripinfo id="flow_1_phase1_N_straight.5" depart="68.00" departLane="S_in_1" departPos="92.42" departSpeed="4.93" departDelay="0.42" arrival="116.00" arrivalLane="W_out_1" arrivalPos="189.60" arrivalSpeed="12.30" duration="48.00" routeLength="306.13" waitingTime="13.00" waitingCount="1" stopTime="0.00" timeLoss="22.48" rerouteNo="0" devices="vehroute_flow_1_phase1_N_straight.5 tripinfo_flow_1_phase1_N_straight.5" vType="moto" speedFactor="0.90" vaporized=""/>
    <tripinfo id="flow_8_phase1_S_uturn.1" depart="66.00" departLane="S_in_1" departPos="19.51" departSpeed="7.49" departDelay="0.07" arrival="119.00" arrivalLane="S_out_1" arrivalPos="189.60" arrivalSpeed="12.61" duration="53.00" routeLength="364.36" waitingTime="8.00" waitingCount="2" stopTime="0.00" timeLoss="23.56" rerouteNo="0" devices="vehroute_flow_8_phase1_S_uturn.1 tripinfo_flow_8_phase1_S_uturn.1" vType="truck" speedFactor="0.94" vaporized=""/>
    <tripinfo id="flow_1_phase1_N_straight.7" depart="95.00" departLane="S_in_0" departPos="178.36" departSpeed="3.52" departDelay="0.39" arrival="119.00" arrivalLane="W_out_1" arrivalPos="189.60" arrivalSpeed="13.60" duration="24.00" routeLength="220.19" waitingTime="2.00" waitingCount="1" stopTime="0.00" timeLoss="7.67" rerouteNo="0" devices="vehroute_flow_1_phase1_N_straight.7 tripinfo_flow_1_phase1_N_straight.7" vType="moto" speedFactor="1.06" vaporized=""/>
    <tripinfo id="flow_5_phase1_S_straight.7" depart="93.00" departLane="S_in_0" departPos="60.83" departSpeed="11.55" departDelay="0.39" arrival="121.00" arrivalLane="N_out_0" arrivalPos="189.60" arrivalSpeed="12.44" duration="28.00" routeLength="339.17" waitingTime="0.00" waitingCount="0" stopTime="0.00" timeLoss="0.71" rerouteNo="0" devices="vehroute_flow_5_phase1_S_straight.7 tripinfo_flow_5_phase1_S_straight.7" vType="bus" speedFactor="0.90" vaporized=""/>
    <tripinfo id="flow_13_phase1_W_straight.5" depart="67.00" departLane="W_in_1" departPos="172.37" departSpeed="7.67" departDelay="0.08" arrival="122.00" arrivalLane="E_out_0" arrivalPos="189.60" arrivalSpeed="15.68" duration="55.00" routeLength="227.63" waitingTime="30.00" waitingCount="2" stopTime="0.00" timeLoss="40.26" rerouteNo="0" devices="vehroute_flow_13_phase1_W_straight.5 tripinfo_flow_13_phase1_W_straight.5" vType="moto" speedFactor="1.14" vaporized=""/>
    <tripinfo id="flow_9_phase1_E_straight.6" depart="78.00" departLane="E_in_0" departPos="61.32" departSpeed="6.33" departDelay="0.74" arrival="124.00" arrivalLane="W_out_0" arrivalPos="189.60" arrivalSpeed="13.83" duration="46.00" routeLength="338.68" waitingTime="13.00" waitingCount="1" stopTime="0.00" timeLoss="21.68" rerouteNo="0" devices="vehroute_flow_9_phase1_E_straight.6 tripinfo_flow_9_phase1_E_straight.6" vType="moto" speedFactor="1.02" vaporized=""/>
    <tripinfo id="flow_13_phase1_W_straight.6" depart="81.00" departLane="W_in_1" departPos="109.89" departSpeed="2.14" departDelay="0.70" arrival="124.00" arrivalLane="E_out_0" arrivalPos="189.60" arrivalSpeed="13.17" duration="43.00" routeLength="290.11" waitingTime="10.00" waitingCount="1" stopTime="0.00" timeLoss="21.57" rerouteNo="0" devices="vehroute_flow_13_phase1_W_straight.6 tripinfo_flow_13_phase1_W_straight.6" vType="car" speedFactor="0.98" vaporized=""/>
    <tripinfo id="flow_9_phase1_E_straight.7" depart="91.00" departLane="E_in_0" departPos="43.18" departSpeed="3.17" departDelay="0.86" arrival="126.00" arrivalLane="W_out_0" arrivalPos="189.60" arrivalSpeed="13.46" duration="35.00" routeLength="356.82" waitingTime="1.00" waitingCount="1" stopTime="0.00" timeLoss="9.01" rerouteNo="0" devices="vehroute_flow_9_phase1_E_straight.7 tripinfo_flow_9_phase1_E_straight.7" vType="moto" speedFactor="1.01" vaporized=""/>
    <tripinfo id="flow_15_phase1_W_right.3" depart="99.00" departLane="W_in_1" departPos="22.64" departSpeed="10.66" departDelay="0.49" arrival="126.00" arrivalLane="S_out_0" arrivalPos="189.60" arrivalSpeed="15.79" duration="27.00" routeLength="365.59" waitingTime="0.00" waitingCount="0" stopTime="0.00" timeLoss="3.61" rerouteNo="0" devices="vehroute_flow_15_phase1_W_right.3 tripinfo_flow_15_phase1_W_right.3" vType="moto" speedFactor="1.17" vaporized=""/>
    <tripinfo id="flow_10_phase1_E_left.2" depart="67.00" departLane="E_in_1" departPos="174.17" departSpeed="5.21" departDelay="0.00" arrival="128.00" arrivalLane="S_out_1" arrivalPos="189.60" arrivalSpeed="14.54" duration="61.00" routeLength="224.38" waitingTime="27.00" waitingCount="4" stopTime="0.00" timeLoss="45.15" rerouteNo="0" devices="vehroute_flow_10_phase1_E_left.2 tripinfo_flow_10_phase1_E_left.2" vType="moto" speedFactor="1.07" vaporized=""/>
    <tripinfo id="flow_12_phase1_E_uturn.1" depart="66.00" departLane="E_in_0" departPos="155.68" departSpeed="8.48" departDelay="0.19" arrival="129.00" arrivalLane="E_out_1" arrivalPos="189.60" arrivalSpeed="13.18" duration="63.00" routeLength="228.19" waitingTime="24.00" waitingCount="3" stopTime="0.00" timeLoss="43.87" rerouteNo="0" devices="vehroute_flow_12_phase1_E_uturn.1 tripinfo_flow_12_phase1_E_uturn.1" vType="moto" speedFactor="0.95" vaporized=""/>
    <tripinfo id="flow_4_phase1_N_uturn.1" depart="67.00" departLane="W_in_0" departPos="91.52" departSpeed="11.56" departDelay="0.96" arrival="130.00" arrivalLane="N_out_1" arrivalPos="189.60" arrivalSpeed="12.44" duration="63.00" routeLength="307.03" waitingTime="25.00" waitingCount="3" stopTime="0.00" timeLoss="38.53" rerouteNo="0" devices="vehroute_flow_4_phase1_N_uturn.1 tripinfo_flow_4_phase1_N_uturn.1" vType="moto" speedFactor="0.94" vaporized=""/>
    <tripinfo id="flow_16_phase1_W_uturn.1" depart="67.00" departLane="E_in_0" departPos="161.41" departSpeed="1.65" departDelay="0.80" arrival="130.00" arrivalLane="S_out_1" arrivalPos="189.60" arrivalSpeed="14.37" duration="63.00" routeLength="237.14" waitingTime="20.00" waitingCount="3" stopTime="0.00" timeLoss="45.95" rerouteNo="0" devices="vehroute_flow_16_phase1_W_uturn.1 tripinfo_flow_16_phase1_W_uturn.1" vType="moto" speedFactor="1.04" vaporized=""/>
    <tripinfo id="flow_13_phase1_W_straight.7" depart="94.00" departLane="W_in_1" departPos="88.32" departSpeed="9.46" departDelay="0.31" arrival="130.00" arrivalLane="E_out_0" arrivalPos="189.60" arrivalSpeed="10.09" duration="36.00" routeLength="311.68" waitingTime="0.00" waitingCount="0" stopTime="0.00" timeLoss="7.26" rerouteNo="0" devices="vehroute_flow_13_phase1_W_straight.7 tripinfo_flow_13_phase1_W_straight.7" vType="moto" speedFactor="0.80" vaporized=""/>