<?xml version="1.0" encoding="UTF-8"?>

<!-- generated on 2025-12-08 21:40:08 by Eclipse SUMO sumo Version 1.18.0
<configuration xmlns:xsi="http://www.w3.org/2001/XMLSchema-instance" xsi:noNamespaceSchemaLocation="http://sumo.dlr.de/xsd/sumoConfiguration.xsd">

    <input>
        <net-file value="nets/60p2k/net.net.xml"/>
        <route-files value="nets/60p2k/route_temp_281_124147880884016_33742306.rou.xml"/>
    </input>

    <output>
        <summary-output value="result_ddqn_1.9_0.4/summary_ep_3.xml"/>
        <tripinfo-output value="result_ddqn_1.9_0.4/tripinfo_ep_3.xml"/>
        <vehroute-output value="result_ddqn_1.9_0.4/vehroute_ep_3.xml"/>
    </output>

    <time>
        <begin value="0"/>
    </time>

    <report>
        <verbose value="true"/>
        <no-warnings value="true"/>
        <no-step-log value="true"/>
    </report>

    <traci_server>
        <remote-port value="44093"/>
    </traci_server>

    <gui_only>
        <gui-settings-file value="nets/60p2k/gui-settings.xml"/>
        <quit-on-end value="true"/>
    </gui_only>

</configuration>
-->

<tripinfos xmlns:xsi="http://www.w3.org/2001/XMLSchema-instance" xsi:noNamespaceSchemaLocation="http://sumo.dlr.de/xsd/tripinfo_file.xsd">
    <tripinfo id="flow_5_phase1_S_straight.0" depart="0.00" departLane="S_in_1" departPos="107.37" departSpeed="7.21" departDelay="0.00" arrival="21.00" arrivalLane="N_out_1" arrivalPos="189.60" arrivalSpeed="15.44" duration="21.00" routeLength="292.63" waitingTime="0.00" waitingCount="0" stopTime="0.00" timeLoss="2.21" rerouteNo="0" devices="vehroute_flow_5_phase1_S_straight.0 tripinfo_flow_5_phase1_S_straight.0" vType="moto" speedFactor="1.15" vaporized=""/>
    <tripinfo id="flow_3_phase1_N_right.0" depart="0.00" departLane="N_in_0" departPos="103.38" departSpeed="3.75" departDelay="0.00" arrival="24.00" arrivalLane="W_out_0" arrivalPos="189.60" arrivalSpeed="14.93" duration="24.00" routeLength="284.85" waitingTime="0.00" waitingCount="0" stopTime="0.00" timeLoss="4.48" rerouteNo="0" devices="vehroute_flow_3_phase1_N_right.0 tripinfo_flow_3_phase1_N_right.0" vType="car" speedFactor="1.09" vaporized=""/>
    <tripinfo id="flow_6_phase1_S_left.0" depart="0.00" departLane="S_in_1" departPos="166.01" departSpeed="0.74" departDelay="0.00" arrival="25.00" arrivalLane="W_out_1" arrivalPos="189.60" arrivalSpeed="12.05" duration="25.00" routeLength="232.54" waitingTime="0.00" waitingCount="0" stopTime="0.00" timeLoss="4.22" rerouteNo="0" devices="vehroute_flow_6_phase1_S_left.0 tripinfo_flow_6_phase1_S_left.0" vType="moto" speedFactor="0.88" vaporized=""/>
    <tripinfo id="flow_4_phase1_N_uturn.0" depart="0.00" departLane="N_in_1" departPos="127.60" departSpeed="0.08" departDelay="0.00" arrival="27.00" arrivalLane="E_out_1" arrivalPos="189.60" arrivalSpeed="12.02" duration="27.00" routeLength="270.95" waitingTime="0.00" waitingCount="0" stopTime="0.00" timeLoss="4.38" rerouteNo="0" devices="vehroute_flow_4_phase1_N_uturn.0 tripinfo_flow_4_phase1_N_uturn.0" vType="car" speedFactor="0.92" vaporized=""/>
    <tripinfo id="flow_14_phase1_W_left.0" depart="0.00" departLane="S_in_1" departPos="50.07" departSpeed="13.54" departDelay="0.00" arrival="28.00" arrivalLane="E_out_0" arrivalPos="189.60" arrivalSpeed="12.95" duration="28.00" routeLength="338.16" waitingTime="0.00" waitingCount="0" stopTime="0.00" timeLoss="3.32" rerouteNo="0" devices="vehroute_flow_14_phase1_W_left.0 tripinfo_flow_14_phase1_W_left.0" vType="moto" speedFactor="1.01" vaporized=""/>
    <tripinfo id="flow_2_phase1_N_left.0" depart="0.00" departLane="N_in_1" departPos="8.27" departSpeed="8.33" departDelay="0.00" arrival="31.00" arrivalLane="E_out_1" arrivalPos="189.60" arrivalSpeed="13.98" duration="31.00" routeLength="390.28" waitingTime="0.00" waitingCount="0" stopTime="0.00" timeLoss="2.47" rerouteNo="0" devices="vehroute_flow_2_phase1_N_left.0 tripinfo_flow_2_phase1_N_left.0" vType="moto" speedFactor="1.02" vaporized=""/>
    <tripinfo id="flow_12_phase1_E_uturn.0" depart="0.00" departLane="E_in_0" departPos="129.89" departSpeed="13.76" departDelay="0.00" arrival="36.00" arrivalLane="E_out_1" arrivalPos="189.60" arrivalSpeed="10.94" duration="36.00" routeLength="253.98" waitingTime="10.00" waitingCount="1" stopTime="0.00" timeLoss="17.16" rerouteNo="0" devices="vehroute_flow_12_phase1_E_uturn.0 tripinfo_flow_12_phase1_E_uturn.0" vType="moto" speedFactor="1.03" vaporized=""/>
    <tripinfo id="flow_16_phase1_W_uturn.0" depart="0.00" departLane="W_in_0" departPos="126.68" departSpeed="11.71" departDelay="0.00" arrival="37.00" arrivalLane="W_out_1" arrivalPos="189.60" arrivalSpeed="13.36" duration="37.00" routeLength="257.19" waitingTime="11.00" waitingCount="1" stopTime="0.00" timeLoss="17.73" rerouteNo="0" devices="vehroute_flow_16_phase1_W_uturn.0 tripinfo_flow_16_phase1_W_uturn.0" vType="moto" speedFactor="1.04" vaporized=""/>
    <tripinfo id="flow_15_phase1_W_right.0" depart="0.00" departLane="W_in_1" departPos="108.38" departSpeed="1.98" departDelay="0.00" arrival="39.00" arrivalLane="S_out_0" arrivalPos="189.60" arrivalSpeed="10.73" duration="39.00" routeLength="279.85" waitingTime="6.00" waitingCount="1" stopTime="0.00" timeLoss="13.86" rerouteNo="0" devices="vehroute_flow_15_phase1_W_right.0 tripinfo_flow_15_phase1_W_right.0" vType="moto" speedFactor="0.85" vaporized=""/>
    <tripinfo id="flow_9_phase1_E_straight.1" depart="13.00" departLane="E_in_0" departPos="131.13" departSpeed="9.54" departDelay="0.12" arrival="40.00" arrivalLane="W_out_1" arrivalPos="189.60" arrivalSpeed="15.54" duration="27.00" routeLength="268.87" waitingTime="0.00" waitingCount="0" stopTime="0.00" timeLoss="9.82" rerouteNo="0" devices="vehroute_flow_9_phase1_E_straight.1 tripinfo_flow_9_phase1_E_straight.1" vType="moto" speedFactor="1.16" vaporized=""/>
    <tripinfo id="flow_9_phase1_E_straight.0" depart="0.00" departLane="E_in_0" departPos="168.29" departSpeed="9.83" departDelay="0.00" arrival="41.00" arrivalLane="W_out_0" arrivalPos="189.60" arrivalSpeed="12.29" duration="41.00" routeLength="231.71" waitingTime="12.00" waitingCount="1" stopTime="0.00" timeLoss="21.88" rerouteNo="0" devices="vehroute_flow_9_phase1_E_straight.0 tripinfo_flow_9_phase1_E_straight.0" vType="truck" speedFactor="0.90" vaporized=""/>
    <tripinfo id="flow_13_phase1_W_straight.0" depart="0.00" departLane="W_in_0" departPos="23.77" departSpeed="1.48" departDelay="0.00" arrival="42.00" arrivalLane="E_out_0" arrivalPos="189.60" arrivalSpeed="11.42" duration="42.00" routeLength="376.23" waitingTime="0.00" waitingCount="0" stopTime="0.00" timeLoss="8.15" rerouteNo="0" devices="vehroute_flow_13_phase1_W_straight.0 tripinfo_flow_13_phase1_W_straight.0" vType="container" speedFactor="0.82" vaporized=""/>
    <tripinfo id="flow_11_phase1_E_right.0" depart="0.00" departLane="W_in_1" departPos="144.95" departSpeed="4.02" departDelay="0.00" arrival="45.00" arrivalLane="W_out_1" arrivalPos="189.60" arrivalSpeed="13.20" duration="45.00" routeLength="238.92" waitingTime="10.00" waitingCount="1" stopTime="0.00" timeLoss="25.49" rerouteNo="0" devices="vehroute_flow_11_phase1_E_right.0 tripinfo_flow_11_phase1_E_right.0" vType="bus" speedFactor="0.96" vaporized=""/>
    <tripinfo id="flow_10_phase1_E_left.0" depart="0.00" departLane="E_in_0" departPos="44.88" departSpeed="7.69" departDelay="0.00" arrival="49.00" arrivalLane="S_out_1" arrivalPos="189.60" arrivalSpeed="13.41" duration="49.00" routeLength="353.67" waitingTime="5.00" waitingCount="2" stopTime="0.00" timeLoss="22.99" rerouteNo="0" devices="vehroute_flow_10_phase1_E_left.0 tripinfo_flow_10_phase1_E_left.0" vType="truck" speedFactor="1.02" vaporized=""/>
    <tripinfo id="flow_5_phase1_S_straight.1" depart="14.00" departLane="S_in_1" departPos="31.93" departSpeed="9.28" departDelay="0.77" arrival="49.00" arrivalLane="N_out_1" arrivalPos="189.60" arrivalSpeed="15.43" duration="35.00" routeLength="368.07" waitingTime="3.00" waitingCount="1" stopTime="0.00" timeLoss="11.25" rerouteNo="0" devices="vehroute_flow_5_phase1_S_straight.1 tripinfo_flow_5_phase1_S_straight.1" vType="moto" speedFactor="1.19" vaporized=""/>
    <tripinfo id="flow_3_phase1_N_right.1" depart="35.00" departLane="N_in_0" departPos="166.00" departSpeed="1.28" departDelay="0.82" arrival="58.00" arrivalLane="W_out_0" arrivalPos="189.60" arrivalSpeed="11.28" duration="23.00" routeLength="222.23" waitingTime="0.00" waitingCount="0" stopTime="0.00" timeLoss="4.18" rerouteNo="0" devices="vehroute_flow_3_phase1_N_right.1 tripinfo_flow_3_phase1_N_right.1" vType="moto" speedFactor="0.88" vaporized=""/>
    <tripinfo id="flow_7_phase1_S_right.0" depart="0.00" departLane="S_in_0" departPos="8.76" departSpeed="8.07" departDelay="0.00" arrival="59.00" arrivalLane="E_out_0" arrivalPos="189.60" arrivalSpeed="11.69" duration="59.00" routeLength="379.47" waitingTime="12.00" waitingCount="1" stopTime="0.00" timeLoss="26.07" rerouteNo="0" devices="vehroute_flow_7_phase1_S_right.0 tripinfo_flow_7_phase1_S_right.0" vType="container" speedFactor="0.85" vaporized=""/>
    <tripinfo id="flow_13_phase1_W_straight.1" depart="14.00" departLane="W_in_1" departPos="121.65" departSpeed="2.86" departDelay="0.62" arrival="61.00" arrivalLane="E_out_1" arrivalPos="189.60" arrivalSpeed="14.39" duration="47.00" routeLength="278.35" waitingTime="12.00" waitingCount="1" stopTime="0.00" timeLoss="28.55" rerouteNo="0" devices="vehroute_flow_13_phase1_W_straight.1 tripinfo_flow_13_phase1_W_straight.1" vType="car" speedFactor="1.12" vaporized=""/>
    <tripinfo id="flow_9_phase1_E_straight.2" depart="26.00" departLane="E_in_1" departPos="52.87" departSpeed="0.38" departDelay="0.25" arrival="62.00" arrivalLane="W_out_0" arrivalPos="189.60" arrivalSpeed="13.20" duration="36.00" routeLength="347.13" waitingTime="0.00" waitingCount="0" stopTime="0.00" timeLoss="10.32" rerouteNo="0" devices="vehroute_flow_9_phase1_E_straight.2 tripinfo_flow_9_phase1_E_straight.2" vType="moto" speedFactor="0.99" vaporized=""/>
    <tripinfo id="flow_15_phase1_W_right.1" depart="33.00" departLane="W_in_1" departPos="97.23" departSpeed="5.84" departDelay="0.16" arrival="62.00" arrivalLane="S_out_0" arrivalPos="189.60" arrivalSpeed="14.19" duration="29.00" routeLength="291.00" waitingTime="2.00" waitingCount="1" stopTime="0.00" timeLoss="8.94" rerouteNo="0" devices="vehroute_flow_15_phase1_W_right.1 tripinfo_flow_15_phase1_W_right.1" vType="moto" speedFactor="1.08" vaporized=""/>
    <tripinfo id="flow_14_phase1_W_left.1" depart="35.00" departLane="S_in_0" departPos="134.76" departSpeed="11.76" departDelay="0.53" arrival="62.00" arrivalLane="E_out_0" arrivalPos="189.60" arrivalSpeed="12.24" duration="27.00" routeLength="253.47" waitingTime="0.00" waitingCount="0" stopTime="0.00" timeLoss="5.54" rerouteNo="0" devices="vehroute_flow_14_phase1_W_left.1 tripinfo_flow_14_phase1_W_left.1" vType="container" speedFactor="0.91" vaporized=""/>
    <tripinfo id="flow_8_phase1_S_uturn.0" depart="0.00" departLane="W_in_0" departPos="120.11" departSpeed="4.48" departDelay="0.00" arrival="65.00" arrivalLane="N_out_1" arrivalPos="189.60" arrivalSpeed="13.47" duration="65.00" routeLength="278.44" waitingTime="21.00" waitingCount="3" stopTime="0.00" timeLoss="44.91" rerouteNo="0" devices="vehroute_flow_8_phase1_S_uturn.0 tripinfo_flow_8_phase1_S_uturn.0" vType="moto" speedFactor="1.05" vaporized=""/>
    <tripinfo id="flow_13_phase1_W_straight.3" depart="41.00" departLane="W_in_0" departPos="148.08" departSpeed="9.64" departDelay="0.85" arrival="65.00" arrivalLane="E_out_0" arrivalPos="189.60" arrivalSpeed="13.34" duration="24.00" routeLength="251.92" waitingTime="0.00" waitingCount="0" stopTime="0.00" timeLoss="6.31" rerouteNo="0" devices="vehroute_flow_13_phase1_W_straight.3 tripinfo_flow_13_phase1_W_straight.3" vType="car" speedFactor="1.05" vaporized=""/>
    <tripinfo id="flow_13_phase1_W_straight.2" depart="27.00" departLane="W_in_1" departPos="59.51" departSpeed="13.32" departDelay="0.23" arrival="70.00" arrivalLane="E_out_1" arrivalPos="189.60" arrivalSpeed="12.78" duration="43.00" routeLength="340.49" waitingTime="3.00" waitingCount="1" stopTime="0.00" timeLoss="17.43" rerouteNo="0" devices="vehroute_flow_13_phase1_W_straight.2 tripinfo_flow_13_phase1_W_straight.2" vType="bus" speedFactor="0.97" vaporized=""/>
    <tripinfo id="flow_5_phase1_S_straight.2" depart="27.00" departLane="S_in_1" departPos="12.70" departSpeed="12.41" departDelay="0.54" arrival="76.00" arrivalLane="N_out_0" arrivalPos="189.60" arrivalSpeed="12.09" duration="49.00" routeLength="387.30" waitingTime="14.00" waitingCount="1" stopTime="0.00" timeLoss="19.25" rerouteNo="0" devices="vehroute_flow_5_phase1_S_straight.2 tripinfo_flow_5_phase1_S_straight.2" vType="moto" speedFactor="0.96" vaporized=""/>
    <tripinfo id="flow_6_phase1_S_left.1" depart="34.00" departLane="S_in_1" departPos="79.10" departSpeed="8.50" departDelay="0.55" arrival="76.00" arrivalLane="W_out_1" arrivalPos="189.60" arrivalSpeed="14.36" duration="42.00" routeLength="319.45" waitingTime="12.00" waitingCount="1" stopTime="0.00" timeLoss="18.67" rerouteNo="0" devices="vehroute_flow_6_phase1_S_left.1 tripinfo_flow_6_phase1_S_left.1" vType="moto" speedFactor="1.05" vaporized=""/>
    <tripinfo id="flow_5_phase1_S_straight.3" depart="40.00" departLane="S_in_1" departPos="77.94" departSpeed="4.43" departDelay="0.31" arrival="77.00" arrivalLane="N_out_1" arrivalPos="189.60" arrivalSpeed="14.76" duration="37.00" routeLength="322.06" waitingTime="7.00" waitingCount="1" stopTime="0.00" timeLoss="15.18" rerouteNo="0" devices="vehroute_flow_5_phase1_S_straight.3 tripinfo_flow_5_phase1_S_straight.3" vType="moto" speedFactor="1.08" vaporized=""/>
    <tripinfo id="flow_1_phase1_N_straight.0" depart="0.00" departLane="E_in_0" departPos="8.62" departSpeed="8.51" departDelay="0.00" arrival="82.00" arrivalLane="E_out_1" arrivalPos="189.60" arrivalSpeed="11.77" duration="82.00" routeLength="375.25" waitingTime="26.00" waitingCount="4" stopTime="0.00" timeLoss="49.37" rerouteNo="0" devices="vehroute_flow_1_phase1_N_straight.0 tripinfo_flow_1_phase1_N_straight.0" vType="bus" speedFactor="0.86" vaporized=""/>
    <tripinfo id="flow_7_phase1_S_right.1" depart="33.00" departLane="S_in_1" departPos="66.71" departSpeed="7.87" departDelay="0.51" arrival="83.00" arrivalLane="E_out_0" arrivalPos="189.60" arrivalSpeed="10.59" duration="50.00" routeLength="321.52" waitingTime="9.00" waitingCount="1" stopTime="0.00" timeLoss="19.70" rerouteNo="0" devices="vehroute_flow_7_phase1_S_right.1 tripinfo_flow_7_phase1_S_right.1" vType="container" speedFactor="0.78" vaporized=""/>
    <tripinfo id="flow_5_phase1_S_straight.4" depart="53.00" departLane="S_in_0" departPos="167.23" departSpeed="1.90" departDelay="0.08" arrival="87.00" arrivalLane="N_out_0" arrivalPos="189.60" arrivalSpeed="13.27" duration="34.00" routeLength="232.77" waitingTime="1.00" waitingCount="1" stopTime="0.00" timeLoss="16.48" rerouteNo="0" devices="vehroute_flow_5_phase1_S_straight.4 tripinfo_flow_5_phase1_S_straight.4" vType="container" speedFactor="0.97" vaporized=""/>
    <tripinfo id="flow_2_phase1_N_left.1" depart="33.00" departLane="N_in_0" departPos="8.88" departSpeed="2.82" departDelay="0.32" arrival="89.00" arrivalLane="E_out_1" arrivalPos="189.60" arrivalSpeed="15.43" duration="56.00" routeLength="389.67" waitingTime="19.00" waitingCount="2" stopTime="0.00" timeLoss="29.77" rerouteNo="0" devices="vehroute_flow_2_phase1_N_left.1 tripinfo_flow_2_phase1_N_left.1" vType="moto" speedFactor="1.12" vaporized=""/>
    <tripinfo id="flow_11_phase1_E_right.1" depart="33.00" departLane="W_in_1" departPos="80.24" departSpeed="3.06" departDelay="0.51" arrival="89.00" arrivalLane="W_out_1" arrivalPos="189.60" arrivalSpeed="14.22" duration="56.00" routeLength="303.63" waitingTime="16.00" waitingCount="2" stopTime="0.00" timeLoss="32.99" rerouteNo="0" devices="vehroute_flow_11_phase1_E_right.1 tripinfo_flow_11_phase1_E_right.1" vType="moto" speedFactor="1.04" vaporized=""/>
    <tripinfo id="flow_13_phase1_W_straight.5" depart="67.00" departLane="W_in_1" departPos="177.50" departSpeed="6.35" departDelay="0.08" arrival="90.00" arrivalLane="E_out_1" arrivalPos="189.60" arrivalSpeed="15.57" duration="23.00" routeLength="222.50" waitingTime="0.00" waitingCount="0" stopTime="0.00" timeLoss="8.63" rerouteNo="0" devices="vehroute_flow_13_phase1_W_straight.5 tripinfo_flow_13_phase1_W_straight.5" vType="moto" speedFactor="1.14" vaporized=""/>
    <tripinfo id="flow_11_phase1_E_right.2" depart="65.00" departLane="W_in_1" departPos="129.09" departSpeed="6.03" departDelay="0.02" arrival="92.00" arrivalLane="W_out_1" arrivalPos="189.60" arrivalSpeed="15.04" duration="27.00" routeLength="254.78" waitingTime="0.00" waitingCount="0" stopTime="0.00" timeLoss="9.61" rerouteNo="0" devices="vehroute_flow_11_phase1_E_right.2 tripinfo_flow_11_phase1_E_right.2" vType="moto" speedFactor="1.14" vaporized=""/>
    <tripinfo id="flow_1_phase1_N_straight.1" depart="14.00" departLane="E_in_1" departPos="58.36" departSpeed="11.64" departDelay="0.48" arrival="97.00" arrivalLane="E_out_1" arrivalPos="189.60" arrivalSpeed="11.24" duration="83.00" routeLength="325.51" waitingTime="31.00" waitingCount="5" stopTime="0.00" timeLoss="54.73" rerouteNo="0" devices="vehroute_flow_1_phase1_N_straight.1 tripinfo_flow_1_phase1_N_straight.1" vType="moto" speedFactor="0.87" vaporized=""/>
    <tripinfo id="flow_16_phase1_W_uturn.1" depart="67.00" departLane="W_in_1" departPos="63.10" departSpeed="4.21" departDelay="0.80" arrival="97.00" arrivalLane="W_out_1" arrivalPos="189.60" arrivalSpeed="13.42" duration="30.00" routeLength="320.77" waitingTime="0.00" waitingCount="0" stopTime="0.00" timeLoss="6.83" rerouteNo="0" devices="vehroute_flow_16_phase1_W_uturn.1 tripinfo_flow_16_phase1_W_uturn.1" vType="moto" speedFactor="1.04" vaporized=""/>
    <tripinfo id="flow_9_phase1_E_straight.3" depart="39.00" departLane="E_in_1" departPos="108.76" departSpeed="10.34" departDelay="0.37" arrival="98.00" arrivalLane="W_out_0" arrivalPos="189.60" arrivalSpeed="11.49" duration="59.00" routeLength="291.24" waitingTime="13.00" waitingCount="2" stopTime="0.00" timeLoss="34.34" rerouteNo="0" devices="vehroute_flow_9_phase1_E_straight.3 tripinfo_flow_9_phase1_E_straight.3" vType="bus" speedFactor="0.85" vaporized=""/>
    <tripinfo id="flow_1_phase1_N_straight.2" depart="28.00" departLane="E_in_1" departPos="107.53" departSpeed="1.11" departDelay="0.97" arrival="99.00" arrivalLane="E_out_1" arrivalPos="189.60" arrivalSpeed="12.01" duration="71.00" routeLength="276.34" waitingTime="26.00" waitingCount="5" stopTime="0.00" timeLoss="47.62" rerouteNo="0" devices="vehroute_flow_1_phase1_N_straight.2 tripinfo_flow_1_phase1_N_straight.2" vType="moto" speedFactor="0.93" vaporized=""/>
    <tripinfo id="flow_3_phase1_N_right.2" depart="69.00" departLane="N_in_0" departPos="69.49" departSpeed="6.82" departDelay="0.63" arrival="100.00" arrivalLane="W_out_0" arrivalPos="189.60" arrivalSpeed="14.89" duration="31.00" routeLength="318.74" waitingTime="1.00" waitingCount="1" stopTime="0.00" timeLoss="9.50" rerouteNo="0" devices="vehroute_flow_3_phase1_N_right.2 tripinfo_flow_3_phase1_N_right.2" vType="moto" speedFactor="1.10" vaporized=""/>
    <tripinfo id="flow_7_phase1_S_right.2" depart="65.00" departLane="S_in_1" departPos="65.33" departSpeed="12.93" departDelay="0.01" arrival="101.00" arrivalLane="E_out_0" arrivalPos="189.60" arrivalSpeed="13.94" duration="36.00" routeLength="322.90" waitingTime="5.00" waitingCount="1" stopTime="0.00" timeLoss="11.93" rerouteNo="0" devices="vehroute_flow_7_phase1_S_right.2 tripinfo_flow_7_phase1_S_right.2" vType="moto" speedFactor="1.03" vaporized=""/>
    <tripinfo id="flow_5_phase1_S_straight.5" depart="67.00" departLane="S_in_1" departPos="174.17" departSpeed="4.98" departDelay="0.85" arrival="101.00" arrivalLane="N_out_0" arrivalPos="189.60" arrivalSpeed="12.97" duration="34.00" routeLength="225.83" waitingTime="10.00" waitingCount="1" stopTime="0.00" timeLoss="17.79" rerouteNo="0" devices="vehroute_flow_5_phase1_S_straight.5 tripinfo_flow_5_phase1_S_straight.5" vType="moto" speedFactor="1.03" vaporized=""/>
    <tripinfo id="flow_14_phase1_W_left.2" depart="69.00" departLane="S_in_1" departPos="24.55" departSpeed="1.97" departDelay="0.06" arrival="105.00" arrivalLane="E_out_0" arrivalPos="189.60" arrivalSpeed="11.36" duration="36.00" routeLength="363.68" waitingTime="0.00" waitingCount="0" stopTime="0.00" timeLoss="5.52" rerouteNo="0" devices="vehroute_flow_14_phase1_W_left.2 tripinfo_flow_14_phase1_W_left.2" vType="car" speedFactor="0.90" vaporized=""/>
    <tripinfo id="flow_4_phase1_N_uturn.1" depart="67.00" departLane="N_in_0" departPos="64.25" departSpeed="6.13" departDelay="0.96" arrival="106.00" arrivalLane="E_out_1" arrivalPos="189.60" arrivalSpeed="12.13" duration="39.00" routeLength="334.30" waitingTime="2.00" waitingCount="2" stopTime="0.00" timeLoss="11.83" rerouteNo="0" devices="vehroute_flow_4_phase1_N_uturn.1 tripinfo_flow_4_phase1_N_uturn.1" vType="moto" speedFactor="0.94" vaporized=""/>
    <tripinfo id="flow_6_phase1_S_left.2" depart="67.00" departLane="S_in_1" departPos="78.09" departSpeed="6.03" departDelay="0.10" arrival="107.00" arrivalLane="W_out_1" arrivalPos="189.60" arrivalSpeed="12.30" duration="40.00" routeLength="320.46" waitingTime="3.00" waitingCount="1" stopTime="0.00" timeLoss="12.41" rerouteNo="0" devices="vehroute_flow_6_phase1_S_left.2 tripinfo_flow_6_phase1_S_left.2" vType="truck" speedFactor="0.89" vaporized=""/>
    <tripinfo id="flow_5_phase1_S_straight.6" depart="80.00" departLane="S_in_1" departPos="37.04" departSpeed="3.48" departDelay="0.62" arrival="107.00" arrivalLane="N_out_1" arrivalPos="189.60" arrivalSpeed="14.64" duration="27.00" routeLength="362.96" waitingTime="0.00" waitingCount="0" stopTime="0.00" timeLoss="2.94" rerouteNo="0" devices="vehroute_flow_5_phase1_S_straight.6 tripinfo_flow_5_phase1_S_straight.6" vType="moto" speedFactor="1.10" vaporized=""/>
    <tripinfo id="flow_2_phase1_N_left.2" depart="66.00" departLane="N_in_1" departPos="19.51" departSpeed="8.76" departDelay="0.64" arrival="111.00" arrivalLane="E_out_1" arrivalPos="189.60" arrivalSpeed="14.38" duration="45.00" routeLength="379.04" waitingTime="6.00" waitingCount="2" stopTime="0.00" timeLoss="19.14" rerouteNo="0" devices="vehroute_flow_2_phase1_N_left.2 tripinfo_flow_2_phase1_N_left.2" vType="emergency" speedFactor="1.10" vaporized=""/>
    <tripinfo id="flow_9_phase1_E_straight.4" depart="52.00" departLane="E_in_1" departPos="23.57" departSpeed="9.43" departDelay="0.49" arrival="119.00" arrivalLane="W_out_0" arrivalPos="189.60" arrivalSpeed="12.54" duration="67.00" routeLength="376.43" waitingTime="11.00" waitingCount="2" stopTime="0.00" timeLoss="38.38" rerouteNo="0" devices="vehroute_flow_9_phase1_E_straight.4 tripinfo_flow_9_phase1_E_straight.4" vType="bus" speedFactor="0.95" vaporized=""/>
    <tripinfo id="flow_13_phase1_W_straight.4" depart="54.00" departLane="W_in_0" departPos="8.08" departSpeed="5.80" departDelay="0.46" arrival="119.00" arrivalLane="E_out_0" arrivalPos="189.60" arrivalSpeed="11.80" duration="65.00" routeLength="391.92" waitingTime="16.00" waitingCount="2" stopTime="0.00" timeLoss="32.29" rerouteNo="0" devices="vehroute_flow_13_phase1_W_straight.4 tripinfo_flow_13_phase1_W_straight.4" vType="bus" speedFactor="0.87" vaporized=""/>
    <tripinfo id="flow_9_phase1_E_straight.6" depart="78.00" departLane="E_in_0" departPos="18.52" departSpeed="1.63" departDelay="0.74" arrival="120.00" arrivalLane="W_out_1" arrivalPos="189.60" arrivalSpeed="13.83" duration="42.00" routeLength="381.48" waitingTime="2.00" waitingCount="1" stopTime="0.00" timeLoss="14.31" rerouteNo="0" devices="vehroute_flow_9_phase1_E_straight.6 tripinfo_flow_9_phase1_E_straight.6" vType="moto" speedFactor="1.02" vaporized=""/>
    <tripinfo id="flow_9_phase1_E_straight.5" depart="65.00" departLane="E_in_1" departPos="111.69" departSpeed="5.97" departDelay="0.62" arrival="121.00" arrivalLane="W_out_0" arrivalPos="189.60" arrivalSpeed="13.51" duration="56.00" routeLength="288.31" waitingTime="12.00" waitingCount="3" stopTime="0.00" timeLoss="35.11" rerouteNo="0" devices="vehroute_flow_9_phase1_E_straight.5 tripinfo_flow_9_phase1_E_straight.5" vType="moto" speedFactor="1.00" vaporized=""/>
    <tripinfo id="flow_5_phase1_S_straight.8" depart="106.00" departLane="S_in_0" departPos="157.03" departSpeed="8.62" departDelay="0.16" arrival="127.00" arrivalLane="N_out_1" arrivalPos="189.60" arrivalSpeed="15.74" duration="21.00" routeLength="242.97" waitingTime="0.00" waitingCount="0" stopTime="0.00" timeLoss="5.13" rerouteNo="0" devices="vehroute_flow_5_phase1_S_straight.8 tripinfo_flow_5_phase1_S_straight.8" vType="emergency" speedFactor="1.14" vaporized=""/>
    <tripinfo id="flow_10_phase1_E_left.1" depart="34.00" departLane="E_in_0" departPos="4.52" departSpeed="10.41" departDelay="0.50" arrival="131.00" arrivalLane="S_out_0" arrivalPos="189.60" arrivalSpeed="10.18" duration="97.00" routeLength="394.03" waitingTime="32.00" waitingCount="5" stopTime="0.00" timeLoss="58.54" rerouteNo="0" devices="vehroute_flow_10_phase1_E_left.1 tripinfo_flow_10_phase1_E_left.1" vType="truck" speedFactor="0.77" vaporized=""/>
    <tripinfo id="flow_7_phase1_S_right.3" depart="98.00" departLane="S_in_1" departPos="86.40" departSpeed="1.77" departDelay="0.52" arrival="131.00" arrivalLane="E_out_0" arrivalPos="189.60" arrivalSpeed="13.94" duration="33.00" routeLength="301.83" waitingTime="0.00" waitingCount="0" stopTime="0.00" timeLoss="11.78" rerouteNo="0" devices="vehroute_flow_7_phase1_S_right.3 tripinfo_flow_7_phase1_S_right.3" vType="moto" speedFactor="1.07" vaporized=""/>
    <tripinfo id="flow_6_phase1_S_left.3" depart="101.00" departLane="S_in_1" departPos="2.21" departSpeed="8.06" departDelay="0.64" arrival="132.00" arrivalLane="W_out_1" arrivalPos="189.60" arrivalSpeed="13.98" duration="31.00" routeLength="396.34" waitingTime="0.00" waitingCount="0" stopTime="0.00" timeLoss="3.99" rerouteNo="0" devices="vehroute_flow_6_phase1_S_left.3 tripinfo_flow_6_phase1_S_left.3" vType="car" speedFactor="1.10" vaporized=""/>
    <tripinfo id="flow_5_phase1_S_straight.7" depart="93.00" departLane="S_in_1" departPos="150.35" departSpeed="7.14" departDelay="0.39" arrival="133.00" arrivalLane="N_out_0" arrivalPos="189.60" arrivalSpeed="12.50" duration="40.00" routeLength="249.65" waitingTime="8.00" waitingCount="1" stopTime="0.00" timeLoss="19.31" rerouteNo="0" devices="vehroute_flow_5_phase1_S_straight.7 tripinfo_flow_5_phase1_S_straight.7" vType="bus" speedFactor="0.90" vaporized=""/>
    <tripinfo id="flow_3_phase1_N_right.3" depart="103.00" departLane="N_in_1" departPos="42.08" departSpeed="12.10" departDelay="0.45" arrival="133.00" arrivalLane="W_out_0" arrivalPos="189.60" arrivalSpeed="13.27" duration="30.00" routeLength="346.15" waitingTime="0.00" waitingCount="0" stopTime="0.00" timeLoss="3.44" rerouteNo="0" devices="vehroute_flow_3_phase1_N_right.3 tripinfo_flow_3_phase1_N_right.3" vType="moto" speedFactor="0.96" vaporized=""/>
    <tripinfo id="flow_14_phase1_W_left.3" depart="104.00" departLane="S_in_1" departPos="84.74" departSpeed="3.99" departDelay="0.59" arrival="133.00" arrivalLane="E_out_0" arrivalPos="189.60" arrivalSpeed="13.92" duration="29.00" routeLength="303.49" waitingTime="0.00" waitingCount="0" stopTime="0.00" timeLoss="7.73" rerouteNo="0" devices="vehroute_flow_14_phase1_W_left.3 tripinfo_flow_14_phase1_W_left.3" vType="moto" speedFactor="1.09" vaporized=""/>
    <tripinfo id="flow_2_phase1_N_left.3" depart="99.00" departLane="N_in_1" departPos="140.12" departSpeed="9.78" departDelay="0.96" arrival="137.00" arrivalLane="E_out_1" arrivalPos="189.60" arrivalSpeed="11.56" duration="38.00" routeLength="258.43" waitingTime="6.00" waitingCount="2" stopTime="0.00" timeLoss="15.51" rerouteNo="0" devices="vehroute_flow_2_phase1_N_left.3 tripinfo_flow_2_phase1_N_left.3" vType="moto" speedFactor="0.89" vaporized=""/>
    <tripinfo id="flow_9_phase1_E_straight.7" depart="91.00" departLane="E_in_1" departPos="41.83" departSpeed="13.19" departDelay="0.86" arrival="140.00" arrivalLane="W_out_0" arrivalPos="189.60" arrivalSpeed="12.75" duration="49.00" routeLength="358.17" waitingTime="7.00" waitingCount="2" stopTime="0.00" timeLoss="23.28" rerouteNo="0" devices="vehroute_flow_9_phase1_E_straight.7 tripinfo_flow_9_phase1_E_straight.7" vType="moto" speedFactor="1.01" vaporized=""/>
    <tripinfo id="flow_15_phase1_W_right.2" depart="66.00" departLane="W_in_1" departPos="65.57" departSpeed="2.07" departDelay="0.32" arrival="141.00" arrivalLane="S_out_0" arrivalPos="189.60" arrivalSpeed="12.22" duration="75.00" routeLength="322.66" waitingTime="34.00" waitingCount="3" stopTime="0.00" timeLoss="47.84" rerouteNo="0" devices="vehroute_flow_15_phase1_W_right.2 tripinfo_flow_15_phase1_W_right.2" vType="moto" speedFactor="0.89" vaporized=""/>
    <tripinfo id="flow_15_phase1_W_right.3" depart="99.00" departLane="W_in_1" departPos="74.79" departSpeed="3.05" departDelay="0.49" arrival="142.00" arrivalLane="S_out_0" arrivalPos="189.60" arrivalSpeed="14.39" duration="43.00" routeLength="313.44" waitingTime="10.00" waitingCount="1" stopTime="0.00" timeLoss="22.53" rerouteNo="0" devices="vehroute_flow_15_phase1_W_right.3 tripinfo_flow_15_phase1_W_right.3" vType="moto" speedFactor="1.17" vaporized=""/>
    <tripinfo id="flow_9_phase1_E_straight.8" depart="104.00" departLane="E_in_0" departPos="35.64" departSpeed="3.01" departDelay="0.98" arrival="143.00" arrivalLane="W_out_0" arrivalPos="189.60" arrivalSpeed="12.45" duration="39.00" routeLength="364.36" waitingTime="2.00" waitingCount="1" stopTime="0.00" timeLoss="10.31" rerouteNo="0" devices="vehroute_flow_9_phase1_E_straight.8 tripinfo_flow_9_phase1_E_straight.8" vType="moto" speedFactor="0.94" vaporized=""/>