<?xml version="1.0" encoding="UTF-8"?>

<!-- generated on 2025-12-08 21:41:56 by Eclipse SUMO sumo Version 1.18.0
<configuration xmlns:xsi="http://www.w3.org/2001/XMLSchema-instance" xsi:noNamespaceSchemaLocation="http://sumo.dlr.de/xsd/sumoConfiguration.xsd">

    <input>
        <net-file value="nets/60p2k/net.net.xml"/>
        <route-files value="nets/60p2k/route_temp_281_124147880884016_33742306.rou.xml"/>
    </input>

    <output>
        <summary-output value="result_ddqn_1.9_0.4/summary_ep_7.xml"/>
        <tripinfo-output value="result_ddqn_1.9_0.4/tripinfo_ep_7.xml"/>
        <vehroute-output value="result_ddqn_1.9_0.4/vehroute_ep_7.xml"/>
    </output>

    <time>
        <begin value="0"/>
    </time>

    <report>
        <verbose value="true"/>
        <no-warnings value="true"/>
        <no-step-log value="true"/>
    </report>

    <traci_server>
        <remote-port value="37393"/>
    </traci_server>

    <gui_only>
        <gui-settings-file value="nets/60p2k/gui-settings.xml"/>
        <quit-on-end value="true"/>
    </gui_only>

</configuration>
-->

<tripinfos xmlns:xsi="http://www.w3.org/2001/XMLSchema-instance" xsi:noNamespaceSchemaLocation="http://sumo.dlr.de/xsd/tripinfo_file.xsd">
    <tripinfo id="flow_5_phase1_S_straight.0" depart="0.00" departLane="N_in_1" departPos="107.37" departSpeed="7.21" departDelay="0.00" arrival="20.00" arrivalLane="S_out_1" arrivalPos="189.60" arrivalSpeed="14.95" duration="20.00" routeLength="292.63" waitingTime="0.00" waitingCount="0" stopTime="0.00" timeLoss="1.38" rerouteNo="0" devices="vehroute_flow_5_phase1_S_straight.0 tripinfo_flow_5_phase1_S_straight.0" vType="moto" speedFactor="1.15" vaporized=""/>
    <tripinfo id="flow_6_phase1_S_left.0" depart="0.00" departLane="S_in_1" departPos="166.01" departSpeed="0.74" departDelay="0.00" arrival="29.00" arrivalLane="W_out_1" arrivalPos="189.60" arrivalSpeed="12.02" duration="29.00" routeLength="232.54" waitingTime="1.00" waitingCount="1" stopTime="0.00" timeLoss="8.42" rerouteNo="0" devices="vehroute_flow_6_phase1_S_left.0 tripinfo_flow_6_phase1_S_left.0" vType="moto" speedFactor="0.88" vaporized=""/>
    <tripinfo id="flow_4_phase1_N_uturn.0" depart="0.00" departLane="S_in_1" departPos="127.60" departSpeed="0.08" departDelay="0.00" arrival="30.00" arrivalLane="S_out_1" arrivalPos="189.60" arrivalSpeed="12.21" duration="30.00" routeLength="256.27" waitingTime="0.00" waitingCount="0" stopTime="0.00" timeLoss="9.27" rerouteNo="0" devices="vehroute_flow_4_phase1_N_uturn.0 tripinfo_flow_4_phase1_N_uturn.0" vType="car" speedFactor="0.92" vaporized=""/>
    <tripinfo id="flow_16_phase1_W_uturn.0" depart="0.00" departLane="S_in_1" departPos="135.67" departSpeed="1.28" departDelay="0.00" arrival="30.00" arrivalLane="W_out_1" arrivalPos="189.60" arrivalSpeed="12.89" duration="30.00" routeLength="262.88" waitingTime="0.00" waitingCount="0" stopTime="0.00" timeLoss="10.64" rerouteNo="0" devices="vehroute_flow_16_phase1_W_uturn.0 tripinfo_flow_16_phase1_W_uturn.0" vType="moto" speedFactor="1.04" vaporized=""/>
    <tripinfo id="flow_2_phase1_N_left.0" depart="0.00" departLane="N_in_1" departPos="8.27" departSpeed="8.33" departDelay="0.00" arrival="31.00" arrivalLane="E_out_1" arrivalPos="189.60" arrivalSpeed="13.22" duration="31.00" routeLength="390.28" waitingTime="0.00" waitingCount="0" stopTime="0.00" timeLoss="2.67" rerouteNo="0" devices="vehroute_flow_2_phase1_N_left.0 tripinfo_flow_2_phase1_N_left.0" vType="moto" speedFactor="1.02" vaporized=""/>
    <tripinfo id="flow_8_phase1_S_uturn.0" depart="0.00" departLane="W_in_0" departPos="120.11" departSpeed="4.48" departDelay="0.00" arrival="35.00" arrivalLane="W_out_1" arrivalPos="189.60" arrivalSpeed="13.96" duration="35.00" routeLength="263.76" waitingTime="8.00" waitingCount="1" stopTime="0.00" timeLoss="15.91" rerouteNo="0" devices="vehroute_flow_8_phase1_S_uturn.0 tripinfo_flow_8_phase1_S_uturn.0" vType="moto" speedFactor="1.05" vaporized=""/>
    <tripinfo id="flow_10_phase1_E_left.0" depart="0.00" departLane="E_in_0" departPos="44.88" departSpeed="7.69" departDelay="0.00" arrival="40.00" arrivalLane="S_out_1" arrivalPos="189.60" arrivalSpeed="13.75" duration="40.00" routeLength="353.67" waitingTime="3.00" waitingCount="1" stopTime="0.00" timeLoss="13.69" rerouteNo="0" devices="vehroute_flow_10_phase1_E_left.0 tripinfo_flow_10_phase1_E_left.0" vType="truck" speedFactor="1.02" vaporized=""/>
    <tripinfo id="flow_12_phase1_E_uturn.0" depart="0.00" departLane="E_in_0" departPos="5.65" departSpeed="13.76" departDelay="0.00" arrival="40.00" arrivalLane="E_out_1" arrivalPos="189.60" arrivalSpeed="14.27" duration="40.00" routeLength="378.22" waitingTime="2.00" waitingCount="1" stopTime="0.00" timeLoss="12.47" rerouteNo="0" devices="vehroute_flow_12_phase1_E_uturn.0 tripinfo_flow_12_phase1_E_uturn.0" vType="moto" speedFactor="1.03" vaporized=""/>
    <tripinfo id="flow_9_phase1_E_straight.0" depart="0.00" departLane="E_in_0" departPos="168.29" departSpeed="9.83" departDelay="0.00" arrival="41.00" arrivalLane="W_out_0" arrivalPos="189.60" arrivalSpeed="12.08" duration="41.00" routeLength="231.71" waitingTime="12.00" waitingCount="1" stopTime="0.00" timeLoss="21.90" rerouteNo="0" devices="vehroute_flow_9_phase1_E_straight.0 tripinfo_flow_9_phase1_E_straight.0" vType="truck" speedFactor="0.90" vaporized=""/>
    <tripinfo id="flow_11_phase1_E_right.0" depart="0.00" departLane="E_in_1" departPos="144.95" departSpeed="4.02" departDelay="0.00" arrival="42.00" arrivalLane="N_out_0" arrivalPos="189.60" arrivalSpeed="12.61" duration="42.00" routeLength="243.28" waitingTime="11.00" waitingCount="1" stopTime="0.00" timeLoss="22.14" rerouteNo="0" devices="vehroute_flow_11_phase1_E_right.0 tripinfo_flow_11_phase1_E_right.0" vType="bus" speedFactor="0.96" vaporized=""/>
    <tripinfo id="flow_14_phase1_W_left.0" depart="0.00" departLane="E_in_1" departPos="42.31" departSpeed="3.71" departDelay="0.00" arrival="42.00" arrivalLane="W_out_1" arrivalPos="189.60" arrivalSpeed="12.98" duration="42.00" routeLength="357.69" waitingTime="0.00" waitingCount="0" stopTime="0.00" timeLoss="15.70" rerouteNo="0" devices="vehroute_flow_14_phase1_W_left.0 tripinfo_flow_14_phase1_W_left.0" vType="moto" speedFactor="1.01" vaporized=""/>
    <tripinfo id="flow_9_phase1_E_straight.1" depart="13.00" departLane="E_in_1" departPos="58.36" departSpeed="11.07" departDelay="0.12" arrival="43.00" arrivalLane="W_out_1" arrivalPos="189.60" arrivalSpeed="15.03" duration="30.00" routeLength="341.64" waitingTime="0.00" waitingCount="0" stopTime="0.00" timeLoss="8.14" rerouteNo="0" devices="vehroute_flow_9_phase1_E_straight.1 tripinfo_flow_9_phase1_E_straight.1" vType="moto" speedFactor="1.16" vaporized=""/>
    <tripinfo id="flow_3_phase1_N_right.0" depart="0.00" departLane="W_in_0" departPos="103.38" departSpeed="3.75" departDelay="0.00" arrival="46.00" arrivalLane="W_out_1" arrivalPos="189.60" arrivalSpeed="14.86" duration="46.00" routeLength="280.49" waitingTime="14.00" waitingCount="2" stopTime="0.00" timeLoss="26.50" rerouteNo="0" devices="vehroute_flow_3_phase1_N_right.0 tripinfo_flow_3_phase1_N_right.0" vType="car" speedFactor="1.09" vaporized=""/>
    <tripinfo id="flow_5_phase1_S_straight.1" depart="14.00" departLane="N_in_1" departPos="121.65" departSpeed="2.93" departDelay="0.77" arrival="48.00" arrivalLane="S_out_0" arrivalPos="189.60" arrivalSpeed="15.33" duration="34.00" routeLength="278.35" waitingTime="5.00" waitingCount="1" stopTime="0.00" timeLoss="16.54" rerouteNo="0" devices="vehroute_flow_5_phase1_S_straight.1 tripinfo_flow_5_phase1_S_straight.1" vType="moto" speedFactor="1.19" vaporized=""/>
    <tripinfo id="flow_1_phase1_N_straight.0" depart="0.00" departLane="N_in_0" departPos="8.62" departSpeed="8.51" departDelay="0.00" arrival="53.00" arrivalLane="N_out_0" arrivalPos="189.60" arrivalSpeed="11.89" duration="53.00" routeLength="375.25" waitingTime="10.00" waitingCount="1" stopTime="0.00" timeLoss="20.40" rerouteNo="0" devices="vehroute_flow_1_phase1_N_straight.0 tripinfo_flow_1_phase1_N_straight.0" vType="bus" speedFactor="0.86" vaporized=""/>
    <tripinfo id="flow_5_phase1_S_straight.2" depart="27.00" departLane="N_in_1" departPos="59.51" departSpeed="13.27" departDelay="0.54" arrival="56.00" arrivalLane="S_out_0" arrivalPos="189.60" arrivalSpeed="13.00" duration="29.00" routeLength="340.49" waitingTime="0.00" waitingCount="0" stopTime="0.00" timeLoss="2.86" rerouteNo="0" devices="vehroute_flow_5_phase1_S_straight.2 tripinfo_flow_5_phase1_S_straight.2" vType="moto" speedFactor="0.96" vaporized=""/>
    <tripinfo id="flow_7_phase1_S_right.0" depart="0.00" departLane="S_in_0" departPos="8.76" departSpeed="8.07" departDelay="0.00" arrival="57.00" arrivalLane="E_out_0" arrivalPos="189.60" arrivalSpeed="11.37" duration="57.00" routeLength="379.47" waitingTime="12.00" waitingCount="1" stopTime="0.00" timeLoss="23.71" rerouteNo="0" devices="vehroute_flow_7_phase1_S_right.0 tripinfo_flow_7_phase1_S_right.0" vType="container" speedFactor="0.85" vaporized=""/>
    <tripinfo id="flow_1_phase1_N_straight.1" depart="14.00" departLane="N_in_1" departPos="31.93" departSpeed="7.04" departDelay="0.48" arrival="57.00" arrivalLane="N_out_1" arrivalPos="189.60" arrivalSpeed="11.09" duration="43.00" routeLength="351.94" waitingTime="2.00" waitingCount="1" stopTime="0.00" timeLoss="12.48" rerouteNo="0" devices="vehroute_flow_1_phase1_N_straight.1 tripinfo_flow_1_phase1_N_straight.1" vType="moto" speedFactor="0.87" vaporized=""/>
    <tripinfo id="flow_11_phase1_E_right.1" depart="33.00" departLane="E_in_1" departPos="97.23" departSpeed="5.62" departDelay="0.51" arrival="61.00" arrivalLane="N_out_0" arrivalPos="189.60" arrivalSpeed="13.59" duration="28.00" routeLength="291.00" waitingTime="1.00" waitingCount="1" stopTime="0.00" timeLoss="6.60" rerouteNo="0" devices="vehroute_flow_11_phase1_E_right.1 tripinfo_flow_11_phase1_E_right.1" vType="moto" speedFactor="1.04" vaporized=""/>
    <tripinfo id="flow_13_phase1_W_straight.0" depart="0.00" departLane="S_in_0" departPos="77.99" departSpeed="3.79" departDelay="0.00" arrival="67.00" arrivalLane="W_out_1" arrivalPos="189.60" arrivalSpeed="11.26" duration="67.00" routeLength="320.56" waitingTime="19.00" waitingCount="2" stopTime="0.00" timeLoss="37.88" rerouteNo="0" devices="vehroute_flow_13_phase1_W_straight.0 tripinfo_flow_13_phase1_W_straight.0" vType="container" speedFactor="0.82" vaporized=""/>
    <tripinfo id="flow_14_phase1_W_left.1" depart="35.00" departLane="E_in_0" departPos="86.42" departSpeed="9.04" departDelay="0.53" arrival="67.00" arrivalLane="W_out_0" arrivalPos="189.60" arrivalSpeed="12.44" duration="32.00" routeLength="313.58" waitingTime="0.00" waitingCount="0" stopTime="0.00" timeLoss="7.32" rerouteNo="0" devices="vehroute_flow_14_phase1_W_left.1 tripinfo_flow_14_phase1_W_left.1" vType="container" speedFactor="0.91" vaporized=""/>
    <tripinfo id="flow_9_phase1_E_straight.2" depart="26.00" departLane="E_in_1" departPos="12.70" departSpeed="12.82" departDelay="0.25" arrival="70.00" arrivalLane="W_out_1" arrivalPos="189.60" arrivalSpeed="13.65" duration="44.00" routeLength="387.30" waitingTime="1.00" waitingCount="1" stopTime="0.00" timeLoss="15.69" rerouteNo="0" devices="vehroute_flow_9_phase1_E_straight.2 tripinfo_flow_9_phase1_E_straight.2" vType="moto" speedFactor="0.99" vaporized=""/>
    <tripinfo id="flow_9_phase1_E_straight.3" depart="39.00" departLane="E_in_0" departPos="56.18" departSpeed="6.79" departDelay="0.37" arrival="71.00" arrivalLane="W_out_0" arrivalPos="189.60" arrivalSpeed="11.27" duration="32.00" routeLength="343.82" waitingTime="0.00" waitingCount="0" stopTime="0.00" timeLoss="2.43" rerouteNo="0" devices="vehroute_flow_9_phase1_E_straight.3 tripinfo_flow_9_phase1_E_straight.3" vType="bus" speedFactor="0.85" vaporized=""/>
    <tripinfo id="flow_2_phase1_N_left.1" depart="33.00" departLane="N_in_1" departPos="66.71" departSpeed="11.27" departDelay="0.32" arrival="73.00" arrivalLane="E_out_1" arrivalPos="189.60" arrivalSpeed="14.95" duration="40.00" routeLength="331.84" waitingTime="12.00" waitingCount="1" stopTime="0.00" timeLoss="18.27" rerouteNo="0" devices="vehroute_flow_2_phase1_N_left.1 tripinfo_flow_2_phase1_N_left.1" vType="moto" speedFactor="1.12" vaporized=""/>
    <tripinfo id="flow_10_phase1_E_left.1" depart="34.00" departLane="E_in_0" departPos="166.00" departSpeed="1.12" departDelay="0.50" arrival="74.00" arrivalLane="S_out_0" arrivalPos="189.60" arrivalSpeed="10.40" duration="40.00" routeLength="232.55" waitingTime="1.00" waitingCount="1" stopTime="0.00" timeLoss="16.74" rerouteNo="0" devices="vehroute_flow_10_phase1_E_left.1 tripinfo_flow_10_phase1_E_left.1" vType="truck" speedFactor="0.77" vaporized=""/>
    <tripinfo id="flow_15_phase1_W_right.0" depart="0.00" departLane="W_in_1" departPos="45.77" departSpeed="6.73" departDelay="0.00" arrival="76.00" arrivalLane="W_out_1" arrivalPos="189.60" arrivalSpeed="11.11" duration="76.00" routeLength="338.10" waitingTime="29.00" waitingCount="4" stopTime="0.00" timeLoss="45.31" rerouteNo="0" devices="vehroute_flow_15_phase1_W_right.0 tripinfo_flow_15_phase1_W_right.0" vType="moto" speedFactor="0.85" vaporized=""/>
    <tripinfo id="flow_5_phase1_S_straight.3" depart="40.00" departLane="N_in_0" departPos="132.62" departSpeed="5.13" departDelay="0.31" arrival="76.00" arrivalLane="S_out_0" arrivalPos="189.60" arrivalSpeed="13.91" duration="36.00" routeLength="267.38" waitingTime="9.00" waitingCount="1" stopTime="0.00" timeLoss="17.42" rerouteNo="0" devices="vehroute_flow_5_phase1_S_straight.3 tripinfo_flow_5_phase1_S_straight.3" vType="moto" speedFactor="1.08" vaporized=""/>
    <tripinfo id="flow_13_phase1_W_straight.1" depart="14.00" departLane="S_in_1" departPos="52.87" departSpeed="0.43" departDelay="0.62" arrival="78.00" arrivalLane="W_out_1" arrivalPos="189.60" arrivalSpeed="14.76" duration="64.00" routeLength="345.68" waitingTime="18.00" waitingCount="4" stopTime="0.00" timeLoss="40.49" rerouteNo="0" devices="vehroute_flow_13_phase1_W_straight.1 tripinfo_flow_13_phase1_W_straight.1" vType="car" speedFactor="1.12" vaporized=""/>
    <tripinfo id="flow_1_phase1_N_straight.2" depart="28.00" departLane="N_in_0" departPos="8.88" departSpeed="2.33" departDelay="0.97" arrival="78.00" arrivalLane="N_out_1" arrivalPos="189.60" arrivalSpeed="12.50" duration="50.00" routeLength="374.99" waitingTime="10.00" waitingCount="1" stopTime="0.00" timeLoss="19.14" rerouteNo="0" devices="vehroute_flow_1_phase1_N_straight.2 tripinfo_flow_1_phase1_N_straight.2" vType="moto" speedFactor="0.93" vaporized=""/>
    <tripinfo id="flow_1_phase1_N_straight.3" depart="41.00" departLane="N_in_0" departPos="125.48" departSpeed="7.46" departDelay="0.45" arrival="79.00" arrivalLane="N_out_1" arrivalPos="189.60" arrivalSpeed="13.85" duration="38.00" routeLength="258.39" waitingTime="8.00" waitingCount="1" stopTime="0.00" timeLoss="20.64" rerouteNo="0" devices="vehroute_flow_1_phase1_N_straight.3 tripinfo_flow_1_phase1_N_straight.3" vType="moto" speedFactor="1.20" vaporized=""/>
    <tripinfo id="flow_7_phase1_S_right.1" depart="33.00" departLane="S_in_1" departPos="80.24" departSpeed="2.32" departDelay="0.51" arrival="84.00" arrivalLane="E_out_0" arrivalPos="189.60" arrivalSpeed="10.81" duration="51.00" routeLength="307.99" waitingTime="5.00" waitingCount="1" stopTime="0.00" timeLoss="21.83" rerouteNo="0" devices="vehroute_flow_7_phase1_S_right.1 tripinfo_flow_7_phase1_S_right.1" vType="container" speedFactor="0.78" vaporized=""/>
    <tripinfo id="flow_1_phase1_N_straight.4" depart="55.00" departLane="N_in_1" departPos="65.33" departSpeed="11.56" departDelay="0.94" arrival="87.00" arrivalLane="N_out_1" arrivalPos="189.60" arrivalSpeed="12.08" duration="32.00" routeLength="318.54" waitingTime="0.00" waitingCount="0" stopTime="0.00" timeLoss="5.42" rerouteNo="0" devices="vehroute_flow_1_phase1_N_straight.4 tripinfo_flow_1_phase1_N_straight.4" vType="truck" speedFactor="0.92" vaporized=""/>
    <tripinfo id="flow_13_phase1_W_straight.2" depart="27.00" departLane="S_in_1" departPos="107.53" departSpeed="1.15" departDelay="0.23" arrival="89.00" arrivalLane="W_out_1" arrivalPos="189.60" arrivalSpeed="12.82" duration="62.00" routeLength="291.02" waitingTime="11.00" waitingCount="3" stopTime="0.00" timeLoss="39.04" rerouteNo="0" devices="vehroute_flow_13_phase1_W_straight.2 tripinfo_flow_13_phase1_W_straight.2" vType="bus" speedFactor="0.97" vaporized=""/>
    <tripinfo id="flow_9_phase1_E_straight.5" depart="65.00" departLane="E_in_1" departPos="129.09" departSpeed="5.26" departDelay="0.62" arrival="91.00" arrivalLane="W_out_1" arrivalPos="189.60" arrivalSpeed="12.92" duration="26.00" routeLength="270.91" waitingTime="0.00" waitingCount="0" stopTime="0.00" timeLoss="5.99" rerouteNo="0" devices="vehroute_flow_9_phase1_E_straight.5 tripinfo_flow_9_phase1_E_straight.5" vType="moto" speedFactor="1.00" vaporized=""/>
    <tripinfo id="flow_9_phase1_E_straight.4" depart="52.00" departLane="E_in_0" departPos="167.23" departSpeed="1.87" departDelay="0.49" arrival="93.00" arrivalLane="W_out_0" arrivalPos="189.60" arrivalSpeed="12.58" duration="41.00" routeLength="232.77" waitingTime="10.00" waitingCount="1" stopTime="0.00" timeLoss="23.00" rerouteNo="0" devices="vehroute_flow_9_phase1_E_straight.4 tripinfo_flow_9_phase1_E_straight.4" vType="bus" speedFactor="0.95" vaporized=""/>
    <tripinfo id="flow_10_phase1_E_left.2" depart="67.00" departLane="E_in_1" departPos="74.60" departSpeed="12.15" departDelay="0.00" arrival="93.00" arrivalLane="S_out_1" arrivalPos="189.60" arrivalSpeed="14.49" duration="26.00" routeLength="323.95" waitingTime="0.00" waitingCount="0" stopTime="0.00" timeLoss="2.37" rerouteNo="0" devices="vehroute_flow_10_phase1_E_left.2 tripinfo_flow_10_phase1_E_left.2" vType="moto" speedFactor="1.07" vaporized=""/>
    <tripinfo id="flow_11_phase1_E_right.2" depart="65.00" departLane="E_in_1" departPos="19.51" departSpeed="9.11" departDelay="0.02" arrival="94.00" arrivalLane="N_out_0" arrivalPos="189.60" arrivalSpeed="14.99" duration="29.00" routeLength="368.72" waitingTime="0.00" waitingCount="0" stopTime="0.00" timeLoss="4.56" rerouteNo="0" devices="vehroute_flow_11_phase1_E_right.2 tripinfo_flow_11_phase1_E_right.2" vType="moto" speedFactor="1.14" vaporized=""/>
    <tripinfo id="flow_15_phase1_W_right.1" depart="33.00" departLane="W_in_1" departPos="79.10" departSpeed="8.77" departDelay="0.16" arrival="96.00" arrivalLane="W_out_1" arrivalPos="189.60" arrivalSpeed="13.95" duration="63.00" routeLength="304.77" waitingTime="29.00" waitingCount="3" stopTime="0.00" timeLoss="41.77" rerouteNo="0" devices="vehroute_flow_15_phase1_W_right.1 tripinfo_flow_15_phase1_W_right.1" vType="moto" speedFactor="1.08" vaporized=""/>
    <tripinfo id="flow_12_phase1_E_uturn.1" depart="66.00" departLane="E_in_0" departPos="31.76" departSpeed="11.95" departDelay="0.19" arrival="99.00" arrivalLane="E_out_1" arrivalPos="189.60" arrivalSpeed="12.56" duration="33.00" routeLength="352.11" waitingTime="0.00" waitingCount="0" stopTime="0.00" timeLoss="4.65" rerouteNo="0" devices="vehroute_flow_12_phase1_E_uturn.1 tripinfo_flow_12_phase1_E_uturn.1" vType="moto" speedFactor="0.95" vaporized=""/>
    <tripinfo id="flow_2_phase1_N_left.2" depart="66.00" departLane="N_in_0" departPos="104.14" departSpeed="9.79" departDelay="0.64" arrival="100.00" arrivalLane="E_out_1" arrivalPos="189.60" arrivalSpeed="14.87" duration="34.00" routeLength="294.41" waitingTime="8.00" waitingCount="1" stopTime="0.00" timeLoss="13.86" rerouteNo="0" devices="vehroute_flow_2_phase1_N_left.2 tripinfo_flow_2_phase1_N_left.2" vType="emergency" speedFactor="1.10" vaporized=""/>
    <tripinfo id="flow_5_phase1_S_straight.5" depart="67.00" departLane="N_in_1" departPos="92.22" departSpeed="0.17" departDelay="0.85" arrival="103.00" arrivalLane="S_out_1" arrivalPos="189.60" arrivalSpeed="13.77" duration="36.00" routeLength="307.78" waitingTime="4.00" waitingCount="1" stopTime="0.00" timeLoss="13.67" rerouteNo="0" devices="vehroute_flow_5_phase1_S_straight.5 tripinfo_flow_5_phase1_S_straight.5" vType="moto" speedFactor="1.03" vaporized=""/>
    <tripinfo id="flow_1_phase1_N_straight.5" depart="68.00" departLane="N_in_1" departPos="84.66" departSpeed="1.92" departDelay="0.42" arrival="108.00" arrivalLane="N_out_1" arrivalPos="189.60" arrivalSpeed="11.86" duration="40.00" routeLength="299.21" waitingTime="2.00" waitingCount="1" stopTime="0.00" timeLoss="14.20" rerouteNo="0" devices="vehroute_flow_1_phase1_N_straight.5 tripinfo_flow_1_phase1_N_straight.5" vType="moto" speedFactor="0.90" vaporized=""/>
    <tripinfo id="flow_5_phase1_S_straight.6" depart="80.00" departLane="N_in_0" departPos="42.85" departSpeed="1.49" departDelay="0.62" arrival="109.00" arrivalLane="S_out_1" arrivalPos="189.60" arrivalSpeed="15.12" duration="29.00" routeLength="357.15" waitingTime="0.00" waitingCount="0" stopTime="0.00" timeLoss="5.36" rerouteNo="0" devices="vehroute_flow_5_phase1_S_straight.6 tripinfo_flow_5_phase1_S_straight.6" vType="moto" speedFactor="1.10" vaporized=""/>
    <tripinfo id="flow_1_phase1_N_straight.6" depart="82.00" departLane="N_in_1" departPos="88.32" departSpeed="11.59" departDelay="0.90" arrival="109.00" arrivalLane="N_out_1" arrivalPos="189.60" arrivalSpeed="13.35" duration="27.00" routeLength="295.55" waitingTime="0.00" waitingCount="0" stopTime="0.00" timeLoss="4.43" rerouteNo="0" devices="vehroute_flow_1_phase1_N_straight.6 tripinfo_flow_1_phase1_N_straight.6" vType="car" speedFactor="0.98" vaporized=""/>
    <tripinfo id="flow_5_phase1_S_straight.4" depart="53.00" departLane="N_in_0" departPos="8.08" departSpeed="6.48" departDelay="0.08" arrival="110.00" arrivalLane="S_out_0" arrivalPos="189.60" arrivalSpeed="13.33" duration="57.00" routeLength="391.92" waitingTime="10.00" waitingCount="1" stopTime="0.00" timeLoss="27.33" rerouteNo="0" devices="vehroute_flow_5_phase1_S_straight.4 tripinfo_flow_5_phase1_S_straight.4" vType="container" speedFactor="0.97" vaporized=""/>
    <tripinfo id="flow_6_phase1_S_left.1" depart="34.00" departLane="S_in_0" departPos="4.52" departSpeed="14.19" departDelay="0.55" arrival="113.00" arrivalLane="W_out_1" arrivalPos="189.60" arrivalSpeed="13.67" duration="79.00" routeLength="394.03" waitingTime="24.00" waitingCount="3" stopTime="0.00" timeLoss="51.20" rerouteNo="0" devices="vehroute_flow_6_phase1_S_left.1 tripinfo_flow_6_phase1_S_left.1" vType="moto" speedFactor="1.05" vaporized=""/>
    <tripinfo id="flow_9_phase1_E_straight.6" depart="78.00" departLane="E_in_0" departPos="149.69" departSpeed="1.84" departDelay="0.74" arrival="114.00" arrivalLane="W_out_0" arrivalPos="189.60" arrivalSpeed="13.83" duration="36.00" routeLength="250.31" waitingTime="10.00" waitingCount="1" stopTime="0.00" timeLoss="17.98" rerouteNo="0" devices="vehroute_flow_9_phase1_E_straight.6 tripinfo_flow_9_phase1_E_straight.6" vType="moto" speedFactor="1.02" vaporized=""/>
    <tripinfo id="flow_13_phase1_W_straight.3" depart="41.00" departLane="S_in_1" departPos="23.57" departSpeed="4.10" departDelay="0.85" arrival="115.00" arrivalLane="W_out_1" arrivalPos="189.60" arrivalSpeed="14.10" duration="74.00" routeLength="374.98" waitingTime="20.00" waitingCount="3" stopTime="0.00" timeLoss="47.20" rerouteNo="0" devices="vehroute_flow_13_phase1_W_straight.3 tripinfo_flow_13_phase1_W_straight.3" vType="car" speedFactor="1.05" vaporized=""/>
    <tripinfo id="flow_9_phase1_E_straight.7" depart="91.00" departLane="E_in_0" departPos="178.36" departSpeed="3.34" departDelay="0.86" arrival="116.00" arrivalLane="W_out_0" arrivalPos="189.60" arrivalSpeed="13.09" duration="25.00" routeLength="221.64" waitingTime="1.00" waitingCount="1" stopTime="0.00" timeLoss="8.43" rerouteNo="0" devices="vehroute_flow_9_phase1_E_straight.7 tripinfo_flow_9_phase1_E_straight.7" vType="moto" speedFactor="1.01" vaporized=""/>
    <tripinfo id="flow_14_phase1_W_left.2" depart="69.00" departLane="E_in_1" departPos="29.88" departSpeed="10.00" departDelay="0.06" arrival="120.00" arrivalLane="W_out_0" arrivalPos="189.60" arrivalSpeed="11.75" duration="51.00" routeLength="370.12" waitingTime="13.00" waitingCount="2" stopTime="0.00" timeLoss="20.77" rerouteNo="0" devices="vehroute_flow_14_phase1_W_left.2 tripinfo_flow_14_phase1_W_left.2" vType="car" speedFactor="0.90" vaporized=""/>
    <tripinfo id="flow_3_phase1_N_right.1" depart="35.00" departLane="W_in_0" departPos="93.41" departSpeed="11.32" departDelay="0.82" arrival="121.00" arrivalLane="W_out_1" arrivalPos="189.60" arrivalSpeed="12.21" duration="86.00" routeLength="290.46" waitingTime="44.00" waitingCount="5" stopTime="0.00" timeLoss="60.76" rerouteNo="0" devices="vehroute_flow_3_phase1_N_right.1 tripinfo_flow_3_phase1_N_right.1" vType="moto" speedFactor="0.88" vaporized=""/>
    <tripinfo id="flow_14_phase1_W_left.3" depart="104.00" departLane="E_in_1" departPos="177.75" departSpeed="12.52" departDelay="0.59" arrival="122.00" arrivalLane="W_out_1" arrivalPos="189.60" arrivalSpeed="13.25" duration="18.00" routeLength="222.25" waitingTime="0.00" waitingCount="0" stopTime="0.00" timeLoss="3.20" rerouteNo="0" devices="vehroute_flow_14_phase1_W_left.3 tripinfo_flow_14_phase1_W_left.3" vType="moto" speedFactor="1.09" vaporized=""/>
    <tripinfo id="flow_11_phase1_E_right.3" depart="98.00" departLane="E_in_0" departPos="150.32" departSpeed="4.98" departDelay="0.53" arrival="123.00" arrivalLane="N_out_0" arrivalPos="189.60" arrivalSpeed="11.06" duration="25.00" routeLength="237.91" waitingTime="0.00" waitingCount="0" stopTime="0.00" timeLoss="3.19" rerouteNo="0" devices="vehroute_flow_11_phase1_E_right.3 tripinfo_flow_11_phase1_E_right.3" vType="moto" speedFactor="0.83" vaporized=""/>
    <tripinfo id="flow_1_phase1_N_straight.7" depart="95.00" departLane="N_in_1" departPos="22.64" departSpeed="0.51" departDelay="0.39" arrival="127.00" arrivalLane="N_out_1" arrivalPos="189.60" arrivalSpeed="14.13" duration="32.00" routeLength="361.23" waitingTime="0.00" waitingCount="0" stopTime="0.00" timeLoss="6.64" rerouteNo="0" devices="vehroute_flow_1_phase1_N_straight.7 tripinfo_flow_1_phase1_N_straight.7" vType="moto" speedFactor="1.06" vaporized=""/>
    <tripinfo id="flow_8_phase1_S_uturn.1" depart="66.00" departLane="W_in_1" departPos="168.21" departSpeed="7.19" departDelay="0.07" arrival="129.00" arrivalLane="W_out_1" arrivalPos="189.60" arrivalSpeed="12.95" duration="63.00" routeLength="215.66" waitingTime="24.00" waitingCount="4" stopTime="0.00" timeLoss="44.90" rerouteNo="0" devices="vehroute_flow_8_phase1_S_uturn.1 tripinfo_flow_8_phase1_S_uturn.1" vType="truck" speedFactor="0.94" vaporized=""/>
    <tripinfo id="flow_4_phase1_N_uturn.1" depart="67.00" departLane="S_in_1" departPos="124.88" departSpeed="0.01" departDelay="0.96" arrival="131.00" arrivalLane="S_out_1" arrivalPos="189.60" arrivalSpeed="11.88" duration="64.00" routeLength="258.99" waitingTime="22.00" waitingCount="3" stopTime="0.00" timeLoss="42.37" rerouteNo="0" devices="vehroute_flow_4_phase1_N_uturn.1 tripinfo_flow_4_phase1_N_uturn.1" vType="moto" speedFactor="0.94" vaporized=""/>
    <tripinfo id="flow_5_phase1_S_straight.7" depart="93.00" departLane="N_in_1" departPos="107.80" departSpeed="11.54" departDelay="0.39" arrival="133.00" arrivalLane="S_out_0" arrivalPos="189.60" arrivalSpeed="12.18" duration="40.00" routeLength="292.20" waitingTime="6.00" waitingCount="1" stopTime="0.00" timeLoss="16.11" rerouteNo="0" devices="vehroute_flow_5_phase1_S_straight.7 tripinfo_flow_5_phase1_S_straight.7" vType="bus" speedFactor="0.90" vaporized=""/>
    <tripinfo id="flow_2_phase1_N_left.3" depart="99.00" departLane="N_in_0" departPos="36.14" departSpeed="7.46" departDelay="0.96" arrival="133.00" arrivalLane="E_out_1" arrivalPos="189.60" arrivalSpeed="11.09" duration="34.00" routeLength="362.41" waitingTime="0.00" waitingCount="0" stopTime="0.00" timeLoss="3.79" rerouteNo="0" devices="vehroute_flow_2_phase1_N_left.3 tripinfo_flow_2_phase1_N_left.3" vType="moto" speedFactor="0.89" vaporized=""/>
    <tripinfo id="flow_5_phase1_S_straight.8" depart="106.00" departLane="N_in_1" departPos="40.14" departSpeed="0.21" departDelay="0.16" arrival="133.00" arrivalLane="S_out_1" arrivalPos="189.60" arrivalSpeed="14.95" duration="27.00" routeLength="359.86" waitingTime="0.00" waitingCount="0" stopTime="0.00" timeLoss="3.52" rerouteNo="0" devices="vehroute_flow_5_phase1_S_straight.8 tripinfo_flow_5_phase1_S_straight.8" vType="emergency" speedFactor="1.14" vaporized=""/>
    <tripinfo id="flow_13_phase1_W_straight.5" depart="67.00" departLane="S_in_1" departPos="148.65" departSpeed="7.73" departDelay="0.08" arrival="137.00" arrivalLane="W_out_1" arrivalPos="189.60" arrivalSpeed="15.23" duration="70.00" routeLength="249.90" waitingTime="32.00" waitingCount="4" stopTime="0.00" timeLoss="53.28" rerouteNo="0" devices="vehroute_flow_13_phase1_W_straight.5 tripinfo_flow_13_phase1_W_straight.5" vType="moto" speedFactor="1.14" vaporized=""/>
    <tripinfo id="flow_16_phase1_W_uturn.1" depart="67.00" departLane="S_in_0" departPos="63.10" departSpeed="12.18" departDelay="0.80" arrival="140.00" arrivalLane="W_out_1" arrivalPos="189.60" arrivalSpeed="13.59" duration="73.00" routeLength="335.45" waitingTime="26.00" waitingCount="4" stopTime="0.00" timeLoss="48.38" rerouteNo="0" devices="vehroute_flow_16_phase1_W_uturn.1 tripinfo_flow_16_phase1_W_uturn.1" vType="moto" speedFactor="1.04" vaporized=""/>
    <tripinfo id="flow_9_phase1_E_straight.8" depart="104.00" departLane="E_in_1" departPos="57.33" departSpeed="3.45" departDelay="0.98" arrival="142.00" arrivalLane="W_out_0" arrivalPos="189.60" arrivalSpeed="12.40" duration="38.00" routeLength="342.67" waitingTime="3.00" waitingCount="1" stopTime="0.00" timeLoss="10.97" rerouteNo="0" devices="vehroute_flow_9_phase1_E_straight.8 tripinfo_flow_9_phase1_E_straight.8" vType="moto" speedFactor="0.94" vaporized=""/>