<?xml version="1.0" encoding="UTF-8"?>

<!-- generated on 2025-12-08 21:42:48 by Eclipse SUMO sumo Version 1.18.0
<configuration xmlns:xsi="http://www.w3.org/2001/XMLSchema-instance" xsi:noNamespaceSchemaLocation="http://sumo.dlr.de/xsd/sumoConfiguration.xsd">

    <input>
        <net-file value="nets/60p2k/net.net.xml"/>
        <route-files value="nets/60p2k/route_temp_281_124147880884016_33742306.rou.xml"/>
    </input>

    <output>
        <summary-output value="result_ddqn_1.9_0.4/summary_ep_9.xml"/>
        <tripinfo-output value="result_ddqn_1.9_0.4/tripinfo_ep_9.xml"/>
        <vehroute-output value="result_ddqn_1.9_0.4/vehroute_ep_9.xml"/>
    </output>

    <time>
        <begin value="0"/>
    </time>

    <report>
        <verbose value="true"/>
        <no-warnings value="true"/>
        <no-step-log value="true"/>
    </report>

    <traci_server>
        <remote-port value="33355"/>
    </traci_server>

    <gui_only>
        <gui-settings-file value="nets/60p2k/gui-settings.xml"/>
        <quit-on-end value="true"/>
    </gui_only>

</configuration>
-->

<tripinfos xmlns:xsi="http://www.w3.org/2001/XMLSchema-instance" xsi:noNamespaceSchemaLocation="http://sumo.dlr.de/xsd/tripinfo_file.xsd">
    <tripinfo id="flow_9_phase1_E_straight.0" depart="0.00" departLane="S_in_0" departPos="168.29" departSpeed="10.30" departDelay="0.00" arrival="20.00" arrivalLane="N_out_0" arrivalPos="189.60" arrivalSpeed="12.18" duration="20.00" routeLength="231.71" waitingTime="0.00" waitingCount="0" stopTime="0.00" timeLoss="0.62" rerouteNo="0" devices="vehroute_flow_9_phase1_E_straight.0 tripinfo_flow_9_phase1_E_straight.0" vType="truck" speedFactor="0.90" vaporized=""/>
    <tripinfo id="flow_6_phase1_S_left.0" depart="0.00" departLane="S_in_1" departPos="166.01" departSpeed="0.74" departDelay="0.00" arrival="25.00" arrivalLane="W_out_1" arrivalPos="189.60" arrivalSpeed="12.15" duration="25.00" routeLength="232.54" waitingTime="0.00" waitingCount="0" stopTime="0.00" timeLoss="4.35" rerouteNo="0" devices="vehroute_flow_6_phase1_S_left.0 tripinfo_flow_6_phase1_S_left.0" vType="moto" speedFactor="0.88" vaporized=""/>
    <tripinfo id="flow_4_phase1_N_uturn.0" depart="0.00" departLane="N_in_1" departPos="127.60" departSpeed="0.08" departDelay="0.00" arrival="27.00" arrivalLane="N_out_1" arrivalPos="189.60" arrivalSpeed="12.41" duration="27.00" routeLength="256.27" waitingTime="0.00" waitingCount="0" stopTime="0.00" timeLoss="6.31" rerouteNo="0" devices="vehroute_flow_4_phase1_N_uturn.0 tripinfo_flow_4_phase1_N_uturn.0" vType="car" speedFactor="0.92" vaporized=""/>
    <tripinfo id="flow_11_phase1_E_right.0" depart="0.00" departLane="S_in_1" departPos="144.95" departSpeed="4.02" departDelay="0.00" arrival="27.00" arrivalLane="S_out_1" arrivalPos="189.60" arrivalSpeed="12.77" duration="27.00" routeLength="238.92" waitingTime="0.00" waitingCount="0" stopTime="0.00" timeLoss="7.94" rerouteNo="0" devices="vehroute_flow_11_phase1_E_right.0 tripinfo_flow_11_phase1_E_right.0" vType="bus" speedFactor="0.96" vaporized=""/>
    <tripinfo id="flow_3_phase1_N_right.0" depart="0.00" departLane="S_in_0" departPos="103.38" departSpeed="3.75" departDelay="0.00" arrival="28.00" arrivalLane="W_out_1" arrivalPos="189.60" arrivalSpeed="14.95" duration="28.00" routeLength="295.17" waitingTime="0.00" waitingCount="0" stopTime="0.00" timeLoss="7.30" rerouteNo="0" devices="vehroute_flow_3_phase1_N_right.0 tripinfo_flow_3_phase1_N_right.0" vType="car" speedFactor="1.09" vaporized=""/>
    <tripinfo id="flow_2_phase1_N_left.0" depart="0.00" departLane="N_in_1" departPos="8.27" departSpeed="8.33" departDelay="0.00" arrival="32.00" arrivalLane="E_out_1" arrivalPos="189.60" arrivalSpeed="13.96" duration="32.00" routeLength="390.28" waitingTime="0.00" waitingCount="0" stopTime="0.00" timeLoss="2.82" rerouteNo="0" devices="vehroute_flow_2_phase1_N_left.0 tripinfo_flow_2_phase1_N_left.0" vType="moto" speedFactor="1.02" vaporized=""/>
    <tripinfo id="flow_14_phase1_W_left.0" depart="0.00" departLane="W_in_1" departPos="182.88" departSpeed="5.61" departDelay="0.00" arrival="36.00" arrivalLane="N_out_1" arrivalPos="189.60" arrivalSpeed="12.84" duration="36.00" routeLength="215.67" waitingTime="14.00" waitingCount="1" stopTime="0.00" timeLoss="19.57" rerouteNo="0" devices="vehroute_flow_14_phase1_W_left.0 tripinfo_flow_14_phase1_W_left.0" vType="moto" speedFactor="1.01" vaporized=""/>
    <tripinfo id="flow_16_phase1_W_uturn.0" depart="0.00" departLane="W_in_0" departPos="126.68" departSpeed="11.71" departDelay="0.00" arrival="37.00" arrivalLane="W_out_1" arrivalPos="189.60" arrivalSpeed="13.28" duration="37.00" routeLength="257.19" waitingTime="11.00" waitingCount="1" stopTime="0.00" timeLoss="17.94" rerouteNo="0" devices="vehroute_flow_16_phase1_W_uturn.0 tripinfo_flow_16_phase1_W_uturn.0" vType="moto" speedFactor="1.04" vaporized=""/>
    <tripinfo id="flow_5_phase1_S_straight.0" depart="0.00" departLane="W_in_1" departPos="107.37" departSpeed="7.21" departDelay="0.00" arrival="39.00" arrivalLane="N_out_1" arrivalPos="189.60" arrivalSpeed="15.65" duration="39.00" routeLength="291.18" waitingTime="9.00" waitingCount="1" stopTime="0.00" timeLoss="19.17" rerouteNo="0" devices="vehroute_flow_5_phase1_S_straight.0 tripinfo_flow_5_phase1_S_straight.0" vType="moto" speedFactor="1.15" vaporized=""/>
    <tripinfo id="flow_15_phase1_W_right.0" depart="0.00" departLane="W_in_0" departPos="108.38" departSpeed="2.63" departDelay="0.00" arrival="39.00" arrivalLane="S_out_0" arrivalPos="189.60" arrivalSpeed="10.73" duration="39.00" routeLength="279.85" waitingTime="6.00" waitingCount="1" stopTime="0.00" timeLoss="13.86" rerouteNo="0" devices="vehroute_flow_15_phase1_W_right.0 tripinfo_flow_15_phase1_W_right.0" vType="moto" speedFactor="0.85" vaporized=""/>
    <tripinfo id="flow_13_phase1_W_straight.1" depart="14.00" departLane="W_in_1" departPos="121.65" departSpeed="2.86" departDelay="0.62" arrival="40.00" arrivalLane="E_out_1" arrivalPos="189.60" arrivalSpeed="14.57" duration="26.00" routeLength="278.35" waitingTime="0.00" waitingCount="0" stopTime="0.00" timeLoss="7.78" rerouteNo="0" devices="vehroute_flow_13_phase1_W_straight.1 tripinfo_flow_13_phase1_W_straight.1" vType="car" speedFactor="1.12" vaporized=""/>
    <tripinfo id="flow_5_phase1_S_straight.1" depart="14.00" departLane="W_in_1" departPos="31.93" departSpeed="9.28" departDelay="0.77" arrival="42.00" arrivalLane="N_out_1" arrivalPos="189.60" arrivalSpeed="15.68" duration="28.00" routeLength="366.62" waitingTime="0.00" waitingCount="0" stopTime="0.00" timeLoss="4.41" rerouteNo="0" devices="vehroute_flow_5_phase1_S_straight.1 tripinfo_flow_5_phase1_S_straight.1" vType="moto" speedFactor="1.19" vaporized=""/>
    <tripinfo id="flow_13_phase1_W_straight.0" depart="0.00" departLane="W_in_0" departPos="24.53" departSpeed="3.79" departDelay="0.00" arrival="43.00" arrivalLane="E_out_0" arrivalPos="189.60" arrivalSpeed="11.41" duration="43.00" routeLength="375.47" waitingTime="0.00" waitingCount="0" stopTime="0.00" timeLoss="9.33" rerouteNo="0" devices="vehroute_flow_13_phase1_W_straight.0 tripinfo_flow_13_phase1_W_straight.0" vType="container" speedFactor="0.82" vaporized=""/>
    <tripinfo id="flow_8_phase1_S_uturn.0" depart="0.00" departLane="E_in_0" departPos="120.11" departSpeed="4.48" departDelay="0.00" arrival="44.00" arrivalLane="E_out_1" arrivalPos="189.60" arrivalSpeed="13.95" duration="44.00" routeLength="263.76" waitingTime="16.00" waitingCount="2" stopTime="0.00" timeLoss="25.05" rerouteNo="0" devices="vehroute_flow_8_phase1_S_uturn.0 tripinfo_flow_8_phase1_S_uturn.0" vType="moto" speedFactor="1.05" vaporized=""/>
    <tripinfo id="flow_9_phase1_E_straight.1" depart="13.00" departLane="S_in_0" departPos="131.13" departSpeed="8.77" departDelay="0.12" arrival="48.00" arrivalLane="N_out_1" arrivalPos="189.60" arrivalSpeed="14.78" duration="35.00" routeLength="268.87" waitingTime="9.00" waitingCount="1" stopTime="0.00" timeLoss="17.50" rerouteNo="0" devices="vehroute_flow_9_phase1_E_straight.1 tripinfo_flow_9_phase1_E_straight.1" vType="moto" speedFactor="1.16" vaporized=""/>
    <tripinfo id="flow_1_phase1_N_straight.1" depart="14.00" departLane="N_in_1" departPos="58.36" departSpeed="11.64" departDelay="0.48" arrival="51.00" arrivalLane="S_out_0" arrivalPos="189.60" arrivalSpeed="11.64" duration="37.00" routeLength="341.64" waitingTime="2.00" waitingCount="1" stopTime="0.00" timeLoss="8.27" rerouteNo="0" devices="vehroute_flow_1_phase1_N_straight.1 tripinfo_flow_1_phase1_N_straight.1" vType="moto" speedFactor="0.87" vaporized=""/>
    <tripinfo id="flow_1_phase1_N_straight.0" depart="0.00" departLane="N_in_0" departPos="8.62" departSpeed="8.51" departDelay="0.00" arrival="56.00" arrivalLane="S_out_0" arrivalPos="189.60" arrivalSpeed="11.73" duration="56.00" routeLength="391.38" waitingTime="12.00" waitingCount="1" stopTime="0.00" timeLoss="22.50" rerouteNo="0" devices="vehroute_flow_1_phase1_N_straight.0 tripinfo_flow_1_phase1_N_straight.0" vType="bus" speedFactor="0.86" vaporized=""/>
    <tripinfo id="flow_9_phase1_E_straight.2" depart="26.00" departLane="S_in_1" departPos="52.87" departSpeed="0.38" departDelay="0.25" arrival="56.00" arrivalLane="N_out_1" arrivalPos="189.60" arrivalSpeed="13.46" duration="30.00" routeLength="347.13" waitingTime="0.00" waitingCount="0" stopTime="0.00" timeLoss="4.16" rerouteNo="0" devices="vehroute_flow_9_phase1_E_straight.2 tripinfo_flow_9_phase1_E_straight.2" vType="moto" speedFactor="0.99" vaporized=""/>
    <tripinfo id="flow_7_phase1_S_right.0" depart="0.00" departLane="S_in_0" departPos="8.76" departSpeed="8.07" departDelay="0.00" arrival="57.00" arrivalLane="E_out_0" arrivalPos="189.60" arrivalSpeed="11.61" duration="57.00" routeLength="379.47" waitingTime="12.00" waitingCount="1" stopTime="0.00" timeLoss="23.49" rerouteNo="0" devices="vehroute_flow_7_phase1_S_right.0 tripinfo_flow_7_phase1_S_right.0" vType="container" speedFactor="0.85" vaporized=""/>
    <tripinfo id="flow_9_phase1_E_straight.3" depart="39.00" departLane="S_in_0" departPos="184.19" departSpeed="6.79" departDelay="0.37" arrival="59.00" arrivalLane="N_out_0" arrivalPos="189.60" arrivalSpeed="11.66" duration="20.00" routeLength="215.81" waitingTime="0.00" waitingCount="0" stopTime="0.00" timeLoss="1.25" rerouteNo="0" devices="vehroute_flow_9_phase1_E_straight.3 tripinfo_flow_9_phase1_E_straight.3" vType="bus" speedFactor="0.85" vaporized=""/>
    <tripinfo id="flow_15_phase1_W_right.1" depart="33.00" departLane="W_in_1" departPos="79.10" departSpeed="8.77" departDelay="0.16" arrival="60.00" arrivalLane="S_out_0" arrivalPos="189.60" arrivalSpeed="14.54" duration="27.00" routeLength="309.13" waitingTime="0.00" waitingCount="0" stopTime="0.00" timeLoss="5.17" rerouteNo="0" devices="vehroute_flow_15_phase1_W_right.1 tripinfo_flow_15_phase1_W_right.1" vType="moto" speedFactor="1.08" vaporized=""/>
    <tripinfo id="flow_5_phase1_S_straight.2" depart="27.00" departLane="W_in_1" departPos="33.93" departSpeed="12.41" departDelay="0.54" arrival="66.00" arrivalLane="N_out_1" arrivalPos="189.60" arrivalSpeed="12.97" duration="39.00" routeLength="364.62" waitingTime="2.00" waitingCount="1" stopTime="0.00" timeLoss="10.50" rerouteNo="0" devices="vehroute_flow_5_phase1_S_straight.2 tripinfo_flow_5_phase1_S_straight.2" vType="moto" speedFactor="0.96" vaporized=""/>
    <tripinfo id="flow_13_phase1_W_straight.2" depart="27.00" departLane="W_in_1" departPos="107.53" departSpeed="4.21" departDelay="0.23" arrival="68.00" arrivalLane="E_out_0" arrivalPos="189.60" arrivalSpeed="13.04" duration="41.00" routeLength="292.47" waitingTime="3.00" waitingCount="1" stopTime="0.00" timeLoss="18.55" rerouteNo="0" devices="vehroute_flow_13_phase1_W_straight.2 tripinfo_flow_13_phase1_W_straight.2" vType="bus" speedFactor="0.97" vaporized=""/>
    <tripinfo id="flow_2_phase1_N_left.1" depart="33.00" departLane="N_in_1" departPos="66.71" departSpeed="11.27" departDelay="0.32" arrival="74.00" arrivalLane="E_out_1" arrivalPos="189.60" arrivalSpeed="14.51" duration="41.00" routeLength="331.84" waitingTime="12.00" waitingCount="1" stopTime="0.00" timeLoss="18.34" rerouteNo="0" devices="vehroute_flow_2_phase1_N_left.1 tripinfo_flow_2_phase1_N_left.1" vType="moto" speedFactor="1.12" vaporized=""/>
    <tripinfo id="flow_14_phase1_W_left.1" depart="35.00" departLane="W_in_0" departPos="86.42" departSpeed="8.91" departDelay="0.53" arrival="74.00" arrivalLane="N_out_1" arrivalPos="189.60" arrivalSpeed="12.38" duration="39.00" routeLength="312.13" waitingTime="0.00" waitingCount="0" stopTime="0.00" timeLoss="13.41" rerouteNo="0" devices="vehroute_flow_14_phase1_W_left.1 tripinfo_flow_14_phase1_W_left.1" vType="container" speedFactor="0.91" vaporized=""/>
    <tripinfo id="flow_10_phase1_E_left.0" depart="0.00" departLane="E_in_0" departPos="44.88" departSpeed="7.69" departDelay="0.00" arrival="75.00" arrivalLane="S_out_1" arrivalPos="189.60" arrivalSpeed="14.07" duration="75.00" routeLength="353.67" waitingTime="24.00" waitingCount="4" stopTime="0.00" timeLoss="49.17" rerouteNo="0" devices="vehroute_flow_10_phase1_E_left.0 tripinfo_flow_10_phase1_E_left.0" vType="truck" speedFactor="1.02" vaporized=""/>
    <tripinfo id="flow_1_phase1_N_straight.2" depart="28.00" departLane="N_in_0" departPos="8.88" departSpeed="2.33" departDelay="0.97" arrival="77.00" arrivalLane="S_out_0" arrivalPos="189.60" arrivalSpeed="12.20" duration="49.00" routeLength="391.12" waitingTime="10.00" waitingCount="1" stopTime="0.00" timeLoss="17.95" rerouteNo="0" devices="vehroute_flow_1_phase1_N_straight.2 tripinfo_flow_1_phase1_N_straight.2" vType="moto" speedFactor="0.93" vaporized=""/>
    <tripinfo id="flow_1_phase1_N_straight.3" depart="41.00" departLane="N_in_1" departPos="88.42" departSpeed="1.62" departDelay="0.45" arrival="77.00" arrivalLane="S_out_1" arrivalPos="189.60" arrivalSpeed="15.70" duration="36.00" routeLength="311.58" waitingTime="4.00" waitingCount="1" stopTime="0.00" timeLoss="16.10" rerouteNo="0" devices="vehroute_flow_1_phase1_N_straight.3 tripinfo_flow_1_phase1_N_straight.3" vType="moto" speedFactor="1.20" vaporized=""/>
    <tripinfo id="flow_1_phase1_N_straight.4" depart="55.00" departLane="N_in_1" departPos="65.33" departSpeed="11.56" departDelay="0.94" arrival="83.00" arrivalLane="S_out_0" arrivalPos="189.60" arrivalSpeed="12.73" duration="28.00" routeLength="334.67" waitingTime="0.00" waitingCount="0" stopTime="0.00" timeLoss="0.85" rerouteNo="0" devices="vehroute_flow_1_phase1_N_straight.4 tripinfo_flow_1_phase1_N_straight.4" vType="truck" speedFactor="0.92" vaporized=""/>
    <tripinfo id="flow_7_phase1_S_right.1" depart="33.00" departLane="S_in_1" departPos="80.24" departSpeed="2.32" departDelay="0.51" arrival="84.00" arrivalLane="E_out_0" arrivalPos="189.60" arrivalSpeed="10.64" duration="51.00" routeLength="307.99" waitingTime="6.00" waitingCount="1" stopTime="0.00" timeLoss="21.51" rerouteNo="0" devices="vehroute_flow_7_phase1_S_right.1 tripinfo_flow_7_phase1_S_right.1" vType="container" speedFactor="0.78" vaporized=""/>
    <tripinfo id="flow_11_phase1_E_right.1" depart="33.00" departLane="S_in_1" departPos="97.23" departSpeed="5.62" departDelay="0.51" arrival="86.00" arrivalLane="S_out_1" arrivalPos="189.60" arrivalSpeed="13.75" duration="53.00" routeLength="286.64" waitingTime="23.00" waitingCount="2" stopTime="0.00" timeLoss="31.51" rerouteNo="0" devices="vehroute_flow_11_phase1_E_right.1 tripinfo_flow_11_phase1_E_right.1" vType="moto" speedFactor="1.04" vaporized=""/>
    <tripinfo id="flow_5_phase1_S_straight.3" depart="40.00" departLane="W_in_0" departPos="65.01" departSpeed="6.15" departDelay="0.31" arrival="87.00" arrivalLane="N_out_1" arrivalPos="189.60" arrivalSpeed="14.32" duration="47.00" routeLength="333.54" waitingTime="10.00" waitingCount="1" stopTime="0.00" timeLoss="24.01" rerouteNo="0" devices="vehroute_flow_5_phase1_S_straight.3 tripinfo_flow_5_phase1_S_straight.3" vType="moto" speedFactor="1.08" vaporized=""/>
    <tripinfo id="flow_12_phase1_E_uturn.0" depart="0.00" departLane="E_in_0" departPos="5.65" departSpeed="13.76" departDelay="0.00" arrival="88.00" arrivalLane="E_out_1" arrivalPos="189.60" arrivalSpeed="13.10" duration="88.00" routeLength="378.22" waitingTime="34.00" waitingCount="5" stopTime="0.00" timeLoss="59.96" rerouteNo="0" devices="vehroute_flow_12_phase1_E_uturn.0 tripinfo_flow_12_phase1_E_uturn.0" vType="moto" speedFactor="1.03" vaporized=""/>
    <tripinfo id="flow_13_phase1_W_straight.3" depart="41.00" departLane="W_in_1" departPos="53.32" departSpeed="11.02" departDelay="0.85" arrival="88.00" arrivalLane="E_out_0" arrivalPos="189.60" arrivalSpeed="14.18" duration="47.00" routeLength="346.68" waitingTime="14.00" waitingCount="1" stopTime="0.00" timeLoss="22.77" rerouteNo="0" devices="vehroute_flow_13_phase1_W_straight.3 tripinfo_flow_13_phase1_W_straight.3" vType="car" speedFactor="1.05" vaporized=""/>
    <tripinfo id="flow_13_phase1_W_straight.5" depart="67.00" departLane="W_in_0" departPos="92.42" departSpeed="15.81" departDelay="0.08" arrival="90.00" arrivalLane="E_out_0" arrivalPos="189.60" arrivalSpeed="15.47" duration="23.00" routeLength="307.58" waitingTime="0.00" waitingCount="0" stopTime="0.00" timeLoss="2.77" rerouteNo="0" devices="vehroute_flow_13_phase1_W_straight.5 tripinfo_flow_13_phase1_W_straight.5" vType="moto" speedFactor="1.14" vaporized=""/>
    <tripinfo id="flow_13_phase1_W_straight.4" depart="54.00" departLane="W_in_1" departPos="160.30" departSpeed="0.51" departDelay="0.46" arrival="95.00" arrivalLane="E_out_1" arrivalPos="189.60" arrivalSpeed="11.82" duration="41.00" routeLength="239.70" waitingTime="9.00" waitingCount="1" stopTime="0.00" timeLoss="20.51" rerouteNo="0" devices="vehroute_flow_13_phase1_W_straight.4 tripinfo_flow_13_phase1_W_straight.4" vType="bus" speedFactor="0.87" vaporized=""/>
    <tripinfo id="flow_15_phase1_W_right.2" depart="66.00" departLane="W_in_1" departPos="65.57" departSpeed="2.07" departDelay="0.32" arrival="98.00" arrivalLane="S_out_0" arrivalPos="189.60" arrivalSpeed="11.30" duration="32.00" routeLength="322.66" waitingTime="0.00" waitingCount="0" stopTime="0.00" timeLoss="4.34" rerouteNo="0" devices="vehroute_flow_15_phase1_W_right.2 tripinfo_flow_15_phase1_W_right.2" vType="moto" speedFactor="0.89" vaporized=""/>
    <tripinfo id="flow_5_phase1_S_straight.4" depart="53.00" departLane="W_in_0" departPos="70.46" departSpeed="11.90" departDelay="0.08" arrival="100.00" arrivalLane="N_out_1" arrivalPos="189.60" arrivalSpeed="13.07" duration="47.00" routeLength="328.09" waitingTime="6.00" waitingCount="1" stopTime="0.00" timeLoss="20.95" rerouteNo="0" devices="vehroute_flow_5_phase1_S_straight.4 tripinfo_flow_5_phase1_S_straight.4" vType="container" speedFactor="0.97" vaporized=""/>
    <tripinfo id="flow_1_phase1_N_straight.5" depart="68.00" departLane="N_in_1" departPos="39.34" departSpeed="4.17" departDelay="0.42" arrival="101.00" arrivalLane="S_out_0" arrivalPos="189.60" arrivalSpeed="11.60" duration="33.00" routeLength="360.66" waitingTime="0.00" waitingCount="0" stopTime="0.00" timeLoss="3.93" rerouteNo="0" devices="vehroute_flow_1_phase1_N_straight.5 tripinfo_flow_1_phase1_N_straight.5" vType="moto" speedFactor="0.90" vaporized=""/>
    <tripinfo id="flow_10_phase1_E_left.1" depart="34.00" departLane="E_in_0" departPos="166.00" departSpeed="1.12" departDelay="0.50" arrival="103.00" arrivalLane="S_out_1" arrivalPos="189.60" arrivalSpeed="10.15" duration="69.00" routeLength="232.55" waitingTime="22.00" waitingCount="5" stopTime="0.00" timeLoss="46.44" rerouteNo="0" devices="vehroute_flow_10_phase1_E_left.1 tripinfo_flow_10_phase1_E_left.1" vType="truck" speedFactor="0.77" vaporized=""/>
    <tripinfo id="flow_3_phase1_N_right.1" depart="35.00" departLane="S_in_0" departPos="93.41" departSpeed="11.32" departDelay="0.82" arrival="106.00" arrivalLane="W_out_1" arrivalPos="189.60" arrivalSpeed="11.99" duration="71.00" routeLength="305.14" waitingTime="33.00" waitingCount="4" stopTime="0.00" timeLoss="44.59" rerouteNo="0" devices="vehroute_flow_3_phase1_N_right.1 tripinfo_flow_3_phase1_N_right.1" vType="moto" speedFactor="0.88" vaporized=""/>
    <tripinfo id="flow_9_phase1_E_straight.4" depart="52.00" departLane="S_in_0" departPos="135.24" departSpeed="1.65" departDelay="0.49" arrival="106.00" arrivalLane="N_out_0" arrivalPos="189.60" arrivalSpeed="12.99" duration="54.00" routeLength="264.76" waitingTime="12.00" waitingCount="2" stopTime="0.00" timeLoss="33.48" rerouteNo="0" devices="vehroute_flow_9_phase1_E_straight.4 tripinfo_flow_9_phase1_E_straight.4" vType="bus" speedFactor="0.95" vaporized=""/>
    <tripinfo id="flow_7_phase1_S_right.2" depart="65.00" departLane="S_in_1" departPos="111.69" departSpeed="6.16" departDelay="0.01" arrival="106.00" arrivalLane="E_out_0" arrivalPos="189.60" arrivalSpeed="14.05" duration="41.00" routeLength="276.54" waitingTime="9.00" waitingCount="1" stopTime="0.00" timeLoss="20.49" rerouteNo="0" devices="vehroute_flow_7_phase1_S_right.2 tripinfo_flow_7_phase1_S_right.2" vType="moto" speedFactor="1.03" vaporized=""/>
    <tripinfo id="flow_6_phase1_S_left.1" depart="34.00" departLane="S_in_0" departPos="4.52" departSpeed="14.19" departDelay="0.55" arrival="107.00" arrivalLane="W_out_1" arrivalPos="189.60" arrivalSpeed="14.07" duration="73.00" routeLength="394.03" waitingTime="28.00" waitingCount="3" stopTime="0.00" timeLoss="44.87" rerouteNo="0" devices="vehroute_flow_6_phase1_S_left.1 tripinfo_flow_6_phase1_S_left.1" vType="moto" speedFactor="1.05" vaporized=""/>
    <tripinfo id="flow_9_phase1_E_straight.5" depart="65.00" departLane="S_in_1" departPos="129.09" departSpeed="5.26" departDelay="0.62" arrival="108.00" arrivalLane="N_out_1" arrivalPos="189.60" arrivalSpeed="13.66" duration="43.00" routeLength="270.91" waitingTime="10.00" waitingCount="1" stopTime="0.00" timeLoss="22.56" rerouteNo="0" devices="vehroute_flow_9_phase1_E_straight.5 tripinfo_flow_9_phase1_E_straight.5" vType="moto" speedFactor="1.00" vaporized=""/>
    <tripinfo id="flow_9_phase1_E_straight.6" depart="78.00" departLane="S_in_1" departPos="109.89" departSpeed="2.24" departDelay="0.74" arrival="109.00" arrivalLane="N_out_0" arrivalPos="189.60" arrivalSpeed="14.10" duration="31.00" routeLength="290.11" waitingTime="1.00" waitingCount="1" stopTime="0.00" timeLoss="9.73" rerouteNo="0" devices="vehroute_flow_9_phase1_E_straight.6 tripinfo_flow_9_phase1_E_straight.6" vType="moto" speedFactor="1.02" vaporized=""/>
    <tripinfo id="flow_1_phase1_N_straight.6" depart="82.00" departLane="N_in_0" departPos="60.83" departSpeed="12.52" departDelay="0.90" arrival="109.00" arrivalLane="S_out_0" arrivalPos="189.60" arrivalSpeed="12.95" duration="27.00" routeLength="339.17" waitingTime="0.00" waitingCount="0" stopTime="0.00" timeLoss="1.33" rerouteNo="0" devices="vehroute_flow_1_phase1_N_straight.6 tripinfo_flow_1_phase1_N_straight.6" vType="car" speedFactor="0.98" vaporized=""/>
    <tripinfo id="flow_2_phase1_N_left.2" depart="66.00" departLane="N_in_0" departPos="155.68" departSpeed="9.79" departDelay="0.64" arrival="111.00" arrivalLane="E_out_1" arrivalPos="189.60" arrivalSpeed="15.07" duration="45.00" routeLength="242.87" waitingTime="21.00" waitingCount="2" stopTime="0.00" timeLoss="27.92" rerouteNo="0" devices="vehroute_flow_2_phase1_N_left.2 tripinfo_flow_2_phase1_N_left.2" vType="emergency" speedFactor="1.10" vaporized=""/>
    <tripinfo id="flow_6_phase1_S_left.2" depart="67.00" departLane="S_in_0" departPos="78.09" departSpeed="11.28" departDelay="0.10" arrival="116.00" arrivalLane="W_out_1" arrivalPos="189.60" arrivalSpeed="11.98" duration="49.00" routeLength="320.46" waitingTime="6.00" waitingCount="1" stopTime="0.00" timeLoss="22.11" rerouteNo="0" devices="vehroute_flow_6_phase1_S_left.2 tripinfo_flow_6_phase1_S_left.2" vType="truck" speedFactor="0.89" vaporized=""/>
    <tripinfo id="flow_13_phase1_W_straight.6" depart="81.00" departLane="W_in_0" departPos="43.18" departSpeed="3.07" departDelay="0.70" arrival="117.00" arrivalLane="E_out_0" arrivalPos="189.60" arrivalSpeed="13.07" duration="36.00" routeLength="356.82" waitingTime="0.00" waitingCount="0" stopTime="0.00" timeLoss="8.95" rerouteNo="0" devices="vehroute_flow_13_phase1_W_straight.6 tripinfo_flow_13_phase1_W_straight.6" vType="car" speedFactor="0.98" vaporized=""/>
    <tripinfo id="flow_16_phase1_W_uturn.1" depart="67.00" departLane="W_in_0" departPos="87.76" departSpeed="11.32" departDelay="0.80" arrival="118.00" arrivalLane="W_out_1" arrivalPos="189.60" arrivalSpeed="14.29" duration="51.00" routeLength="296.11" waitingTime="14.00" waitingCount="2" stopTime="0.00" timeLoss="29.29" rerouteNo="0" devices="vehroute_flow_16_phase1_W_uturn.1 tripinfo_flow_16_phase1_W_uturn.1" vType="moto" speedFactor="1.04" vaporized=""/>
    <tripinfo id="flow_15_phase1_W_right.3" depart="99.00" departLane="W_in_0" departPos="114.62" departSpeed="11.82" departDelay="0.49" arrival="119.00" arrivalLane="S_out_0" arrivalPos="189.60" arrivalSpeed="14.82" duration="20.00" routeLength="273.61" waitingTime="0.00" waitingCount="0" stopTime="0.00" timeLoss="2.39" rerouteNo="0" devices="vehroute_flow_15_phase1_W_right.3 tripinfo_flow_15_phase1_W_right.3" vType="moto" speedFactor="1.17" vaporized=""/>
    <tripinfo id="flow_14_phase1_W_left.2" depart="69.00" departLane="W_in_0" departPos="69.49" departSpeed="5.55" departDelay="0.06" arrival="121.00" arrivalLane="N_out_1" arrivalPos="189.60" arrivalSpeed="12.39" duration="52.00" routeLength="329.06" waitingTime="12.00" waitingCount="2" stopTime="0.00" timeLoss="24.82" rerouteNo="0" devices="vehroute_flow_14_phase1_W_left.2 tripinfo_flow_14_phase1_W_left.2" vType="car" speedFactor="0.90" vaporized=""/>
    <tripinfo id="flow_12_phase1_E_uturn.1" depart="66.00" departLane="E_in_0" departPos="91.52" departSpeed="11.74" departDelay="0.19" arrival="122.00" arrivalLane="E_out_1" arrivalPos="189.60" arrivalSpeed="12.40" duration="56.00" routeLength="292.35" waitingTime="16.00" waitingCount="3" stopTime="0.00" timeLoss="31.70" rerouteNo="0" devices="vehroute_flow_12_phase1_E_uturn.1 tripinfo_flow_12_phase1_E_uturn.1" vType="moto" speedFactor="0.95" vaporized=""/>
    <tripinfo id="flow_10_phase1_E_left.2" depart="67.00" departLane="E_in_1" departPos="155.35" departSpeed="11.12" departDelay="0.00" arrival="122.00" arrivalLane="S_out_1" arrivalPos="189.60" arrivalSpeed="13.82" duration="55.00" routeLength="243.20" waitingTime="18.00" waitingCount="3" stopTime="0.00" timeLoss="37.33" rerouteNo="0" devices="vehroute_flow_10_phase1_E_left.2 tripinfo_flow_10_phase1_E_left.2" vType="moto" speedFactor="1.07" vaporized=""/>
    <tripinfo id="flow_13_phase1_W_straight.7" depart="94.00" departLane="W_in_1" departPos="150.35" departSpeed="6.33" departDelay="0.31" arrival="122.00" arrivalLane="E_out_0" arrivalPos="189.60" arrivalSpeed="9.92" duration="28.00" routeLength="249.65" waitingTime="0.00" waitingCount="0" stopTime="0.00" timeLoss="5.32" rerouteNo="0" devices="vehroute_flow_13_phase1_W_straight.7 tripinfo_flow_13_phase1_W_straight.7" vType="moto" speedFactor="0.80" vaporized=""/>
    <tripinfo id="flow_5_phase1_S_straight.5" depart="67.00" departLane="W_in_1" departPos="2.21" departSpeed="9.40" departDelay="0.85" arrival="123.00" arrivalLane="N_out_1" arrivalPos="189.60" arrivalSpeed="13.14" duration="56.00" routeLength="396.34" waitingTime="11.00" waitingCount="2" stopTime="0.00" timeLoss="26.97" rerouteNo="0" devices="vehroute_flow_5_phase1_S_straight.5 tripinfo_flow_5_phase1_S_straight.5" vType="moto" speedFactor="1.03" vaporized=""/>
    <tripinfo id="flow_7_phase1_S_right.3" depart="98.00" departLane="S_in_0" departPos="140.51" departSpeed="11.13" departDelay="0.52" arrival="125.00" arrivalLane="E_out_0" arrivalPos="189.60" arrivalSpeed="14.17" duration="27.00" routeLength="247.72" waitingTime="4.00" waitingCount="1" stopTime="0.00" timeLoss="9.57" rerouteNo="0" devices="vehroute_flow_7_phase1_S_right.3 tripinfo_flow_7_phase1_S_right.3" vType="moto" speedFactor="1.07" vaporized=""/>
    <tripinfo id="flow_11_phase1_E_right.2" depart="65.00" departLane="S_in_1" departPos="19.51" departSpeed="9.11" departDelay="0.02" arrival="126.00" arrivalLane="S_out_1" arrivalPos="189.60" arrivalSpeed="15.72" duration="61.00" routeLength="364.36" waitingTime="15.00" waitingCount="2" stopTime="0.00" timeLoss="36.55" rerouteNo="0" devices="vehroute_flow_11_phase1_E_right.2 tripinfo_flow_11_phase1_E_right.2" vType="moto" speedFactor="1.14" vaporized=""/>
    <tripinfo id="flow_1_phase1_N_straight.7" depart="95.00" departLane="N_in_0" departPos="107.99" departSpeed="1.25" departDelay="0.39" arrival="127.00" arrivalLane="S_out_0" arrivalPos="189.60" arrivalSpeed="14.36" duration="32.00" routeLength="292.01" waitingTime="2.00" waitingCount="1" stopTime="0.00" timeLoss="11.28" rerouteNo="0" devices="vehroute_flow_1_phase1_N_straight.7 tripinfo_flow_1_phase1_N_straight.7" vType="moto" speedFactor="1.06" vaporized=""/>
    <tripinfo id="flow_3_phase1_N_right.2" depart="69.00" departLane="S_in_0" departPos="61.32" departSpeed="6.85" departDelay="0.63" arrival="128.00" arrivalLane="W_out_1" arrivalPos="189.60" arrivalSpeed="14.25" duration="59.00" routeLength="337.23" waitingTime="14.00" waitingCount="2" stopTime="0.00" timeLoss="36.40" rerouteNo="0" devices="vehroute_flow_3_phase1_N_right.2 tripinfo_flow_3_phase1_N_right.2" vType="moto" speedFactor="1.10" vaporized=""/>
    <tripinfo id="flow_9_phase1_E_straight.7" depart="91.00" departLane="S_in_1" departPos="88.32" departSpeed="11.93" departDelay="0.86" arrival="129.00" arrivalLane="N_out_0" arrivalPos="189.60" arrivalSpeed="12.89" duration="38.00" routeLength="311.68" waitingTime="5.00" waitingCount="2" stopTime="0.00" timeLoss="15.14" rerouteNo="0" devices="vehroute_flow_9_phase1_E_straight.7 tripinfo_flow_9_phase1_E_straight.7" vType="moto" speedFactor="1.01" vaporized=""/>