<?xml version="1.0" encoding="UTF-8"?>

<!-- generated on 2025-12-08 21:45:59 by Eclipse SUMO sumo Version 1.18.0
<configuration xmlns:xsi="http://www.w3.org/2001/XMLSchema-instance" xsi:noNamespaceSchemaLocation="http://sumo.dlr.de/xsd/sumoConfiguration.xsd">

    <input>
        <net-file value="nets/60p2k/net.net.xml"/>
        <route-files value="nets/60p2k/route_temp_281_124147880884016_33742306.rou.xml"/>
    </input>

    <output>
        <summary-output value="result_ddqn_1.9_0.4/summary_ep_16.xml"/>
        <tripinfo-output value="result_ddqn_1.9_0.4/tripinfo_ep_16.xml"/>
        <vehroute-output value="result_ddqn_1.9_0.4/vehroute_ep_16.xml"/>
    </output>

    <time>
        <begin value="0"/>
    </time>

    <report>
        <verbose value="true"/>
        <no-warnings value="true"/>
        <no-step-log value="true"/>
    </report>

    <traci_server>
        <remote-port value="52743"/>
    </traci_server>

    <gui_only>
        <gui-settings-file value="nets/60p2k/gui-settings.xml"/>
        <quit-on-end value="true"/>
    </gui_only>

</configuration>
-->

<tripinfos xmlns:xsi="http://www.w3.org/2001/XMLSchema-instance" xsi:noNamespaceSchemaLocation="http://sumo.dlr.de/xsd/tripinfo_file.xsd">
    <tripinfo id="flow_9_phase1_E_straight.0" depart="0.00" departLane="S_in_0" departPos="168.29" departSpeed="10.30" departDelay="0.00" arrival="22.00" arrivalLane="E_out_0" arrivalPos="189.60" arrivalSpeed="11.84" duration="22.00" routeLength="219.94" waitingTime="0.00" waitingCount="0" stopTime="0.00" timeLoss="3.60" rerouteNo="0" devices="vehroute_flow_9_phase1_E_straight.0 tripinfo_flow_9_phase1_E_straight.0" vType="truck" speedFactor="0.90" vaporized=""/>
    <tripinfo id="flow_8_phase1_S_uturn.0" depart="0.00" departLane="S_in_0" departPos="120.11" departSpeed="4.48" departDelay="0.00" arrival="24.00" arrivalLane="S_out_1" arrivalPos="189.60" arrivalSpeed="13.85" duration="24.00" routeLength="263.76" waitingTime="0.00" waitingCount="0" stopTime="0.00" timeLoss="4.95" rerouteNo="0" devices="vehroute_flow_8_phase1_S_uturn.0 tripinfo_flow_8_phase1_S_uturn.0" vType="moto" speedFactor="1.05" vaporized=""/>
    <tripinfo id="flow_5_phase1_S_straight.0" depart="0.00" departLane="S_in_1" departPos="107.37" departSpeed="7.21" departDelay="0.00" arrival="25.00" arrivalLane="N_out_1" arrivalPos="189.60" arrivalSpeed="15.67" duration="25.00" routeLength="292.63" waitingTime="0.00" waitingCount="0" stopTime="0.00" timeLoss="5.90" rerouteNo="0" devices="vehroute_flow_5_phase1_S_straight.0 tripinfo_flow_5_phase1_S_straight.0" vType="moto" speedFactor="1.15" vaporized=""/>
    <tripinfo id="flow_6_phase1_S_left.0" depart="0.00" departLane="S_in_1" departPos="166.01" departSpeed="0.74" departDelay="0.00" arrival="25.00" arrivalLane="W_out_1" arrivalPos="189.60" arrivalSpeed="11.45" duration="25.00" routeLength="232.54" waitingTime="0.00" waitingCount="0" stopTime="0.00" timeLoss="4.31" rerouteNo="0" devices="vehroute_flow_6_phase1_S_left.0 tripinfo_flow_6_phase1_S_left.0" vType="moto" speedFactor="0.88" vaporized=""/>
    <tripinfo id="flow_2_phase1_N_left.0" depart="0.00" departLane="S_in_1" departPos="8.27" departSpeed="8.33" departDelay="0.00" arrival="31.00" arrivalLane="W_out_1" arrivalPos="189.60" arrivalSpeed="13.52" duration="31.00" routeLength="390.28" waitingTime="0.00" waitingCount="0" stopTime="0.00" timeLoss="2.51" rerouteNo="0" devices="vehroute_flow_2_phase1_N_left.0 tripinfo_flow_2_phase1_N_left.0" vType="moto" speedFactor="1.02" vaporized=""/>
    <tripinfo id="flow_4_phase1_N_uturn.0" depart="0.00" departLane="N_in_1" departPos="127.60" departSpeed="0.08" departDelay="0.00" arrival="31.00" arrivalLane="N_out_1" arrivalPos="189.60" arrivalSpeed="12.49" duration="31.00" routeLength="256.27" waitingTime="1.00" waitingCount="1" stopTime="0.00" timeLoss="9.50" rerouteNo="0" devices="vehroute_flow_4_phase1_N_uturn.0 tripinfo_flow_4_phase1_N_uturn.0" vType="car" speedFactor="0.92" vaporized=""/>
    <tripinfo id="flow_16_phase1_W_uturn.0" depart="0.00" departLane="E_in_0" departPos="135.67" departSpeed="9.64" departDelay="0.00" arrival="36.00" arrivalLane="S_out_1" arrivalPos="189.60" arrivalSpeed="13.19" duration="36.00" routeLength="262.88" waitingTime="7.00" waitingCount="1" stopTime="0.00" timeLoss="16.64" rerouteNo="0" devices="vehroute_flow_16_phase1_W_uturn.0 tripinfo_flow_16_phase1_W_uturn.0" vType="moto" speedFactor="1.04" vaporized=""/>
    <tripinfo id="flow_15_phase1_W_right.0" depart="0.00" departLane="W_in_1" departPos="153.90" departSpeed="6.73" departDelay="0.00" arrival="39.00" arrivalLane="S_out_0" arrivalPos="189.60" arrivalSpeed="11.44" duration="39.00" routeLength="234.33" waitingTime="12.00" waitingCount="1" stopTime="0.00" timeLoss="17.69" rerouteNo="0" devices="vehroute_flow_15_phase1_W_right.0 tripinfo_flow_15_phase1_W_right.0" vType="moto" speedFactor="0.85" vaporized=""/>
    <tripinfo id="flow_3_phase1_N_right.0" depart="0.00" departLane="W_in_0" departPos="103.38" departSpeed="3.75" departDelay="0.00" arrival="40.00" arrivalLane="S_out_0" arrivalPos="189.60" arrivalSpeed="13.75" duration="40.00" routeLength="284.85" waitingTime="8.00" waitingCount="1" stopTime="0.00" timeLoss="20.29" rerouteNo="0" devices="vehroute_flow_3_phase1_N_right.0 tripinfo_flow_3_phase1_N_right.0" vType="car" speedFactor="1.09" vaporized=""/>
    <tripinfo id="flow_11_phase1_E_right.0" depart="0.00" departLane="E_in_1" departPos="144.95" departSpeed="4.02" departDelay="0.00" arrival="40.00" arrivalLane="N_out_0" arrivalPos="189.60" arrivalSpeed="13.17" duration="40.00" routeLength="243.28" waitingTime="10.00" waitingCount="1" stopTime="0.00" timeLoss="20.61" rerouteNo="0" devices="vehroute_flow_11_phase1_E_right.0 tripinfo_flow_11_phase1_E_right.0" vType="bus" speedFactor="0.96" vaporized=""/>
    <tripinfo id="flow_10_phase1_E_left.0" depart="0.00" departLane="E_in_0" departPos="44.88" departSpeed="7.69" departDelay="0.00" arrival="42.00" arrivalLane="S_out_1" arrivalPos="189.60" arrivalSpeed="13.92" duration="42.00" routeLength="353.67" waitingTime="3.00" waitingCount="1" stopTime="0.00" timeLoss="15.84" rerouteNo="0" devices="vehroute_flow_10_phase1_E_left.0 tripinfo_flow_10_phase1_E_left.0" vType="truck" speedFactor="1.02" vaporized=""/>
    <tripinfo id="flow_12_phase1_E_uturn.0" depart="0.00" departLane="E_in_0" departPos="5.65" departSpeed="13.76" departDelay="0.00" arrival="43.00" arrivalLane="E_out_1" arrivalPos="189.60" arrivalSpeed="14.20" duration="43.00" routeLength="378.22" waitingTime="2.00" waitingCount="1" stopTime="0.00" timeLoss="15.61" rerouteNo="0" devices="vehroute_flow_12_phase1_E_uturn.0 tripinfo_flow_12_phase1_E_uturn.0" vType="moto" speedFactor="1.03" vaporized=""/>
    <tripinfo id="flow_13_phase1_W_straight.0" depart="0.00" departLane="W_in_0" departPos="77.99" departSpeed="3.79" departDelay="0.00" arrival="44.00" arrivalLane="N_out_1" arrivalPos="189.60" arrivalSpeed="11.38" duration="44.00" routeLength="320.56" waitingTime="2.00" waitingCount="1" stopTime="0.00" timeLoss="14.75" rerouteNo="0" devices="vehroute_flow_13_phase1_W_straight.0 tripinfo_flow_13_phase1_W_straight.0" vType="container" speedFactor="0.82" vaporized=""/>
    <tripinfo id="flow_1_phase1_N_straight.0" depart="0.00" departLane="W_in_0" departPos="8.62" departSpeed="8.51" departDelay="0.00" arrival="45.00" arrivalLane="S_out_0" arrivalPos="189.60" arrivalSpeed="11.76" duration="45.00" routeLength="379.61" waitingTime="0.00" waitingCount="0" stopTime="0.00" timeLoss="11.84" rerouteNo="0" devices="vehroute_flow_1_phase1_N_straight.0 tripinfo_flow_1_phase1_N_straight.0" vType="bus" speedFactor="0.86" vaporized=""/>
    <tripinfo id="flow_14_phase1_W_left.0" depart="0.00" departLane="W_in_1" departPos="42.31" departSpeed="3.71" departDelay="0.00" arrival="46.00" arrivalLane="N_out_1" arrivalPos="189.60" arrivalSpeed="12.79" duration="46.00" routeLength="356.24" waitingTime="2.00" waitingCount="1" stopTime="0.00" timeLoss="19.84" rerouteNo="0" devices="vehroute_flow_14_phase1_W_left.0 tripinfo_flow_14_phase1_W_left.0" vType="moto" speedFactor="1.01" vaporized=""/>
    <tripinfo id="flow_9_phase1_E_straight.1" depart="13.00" departLane="S_in_1" departPos="58.36" departSpeed="11.07" departDelay="0.12" arrival="47.00" arrivalLane="E_out_0" arrivalPos="189.60" arrivalSpeed="15.21" duration="34.00" routeLength="329.87" waitingTime="5.00" waitingCount="1" stopTime="0.00" timeLoss="12.82" rerouteNo="0" devices="vehroute_flow_9_phase1_E_straight.1 tripinfo_flow_9_phase1_E_straight.1" vType="moto" speedFactor="1.16" vaporized=""/>
    <tripinfo id="flow_5_phase1_S_straight.1" depart="14.00" departLane="S_in_1" departPos="121.65" departSpeed="2.93" departDelay="0.77" arrival="47.00" arrivalLane="N_out_0" arrivalPos="189.60" arrivalSpeed="15.97" duration="33.00" routeLength="278.35" waitingTime="7.00" waitingCount="1" stopTime="0.00" timeLoss="15.13" rerouteNo="0" devices="vehroute_flow_5_phase1_S_straight.1 tripinfo_flow_5_phase1_S_straight.1" vType="moto" speedFactor="1.19" vaporized=""/>
    <tripinfo id="flow_13_phase1_W_straight.1" depart="14.00" departLane="W_in_1" departPos="52.87" departSpeed="0.43" departDelay="0.62" arrival="48.00" arrivalLane="N_out_1" arrivalPos="189.60" arrivalSpeed="15.44" duration="34.00" routeLength="345.68" waitingTime="0.00" waitingCount="0" stopTime="0.00" timeLoss="10.54" rerouteNo="0" devices="vehroute_flow_13_phase1_W_straight.1 tripinfo_flow_13_phase1_W_straight.1" vType="car" speedFactor="1.12" vaporized=""/>
    <tripinfo id="flow_6_phase1_S_left.1" depart="34.00" departLane="S_in_1" departPos="185.21" departSpeed="4.39" departDelay="0.55" arrival="51.00" arrivalLane="W_out_1" arrivalPos="189.60" arrivalSpeed="13.83" duration="17.00" routeLength="213.34" waitingTime="0.00" waitingCount="0" stopTime="0.00" timeLoss="1.44" rerouteNo="0" devices="vehroute_flow_6_phase1_S_left.1 tripinfo_flow_6_phase1_S_left.1" vType="moto" speedFactor="1.05" vaporized=""/>
    <tripinfo id="flow_5_phase1_S_straight.2" depart="27.00" departLane="S_in_1" departPos="59.51" departSpeed="13.27" departDelay="0.54" arrival="54.00" arrivalLane="N_out_1" arrivalPos="189.60" arrivalSpeed="13.36" duration="27.00" routeLength="340.49" waitingTime="0.00" waitingCount="0" stopTime="0.00" timeLoss="1.47" rerouteNo="0" devices="vehroute_flow_5_phase1_S_straight.2 tripinfo_flow_5_phase1_S_straight.2" vType="moto" speedFactor="0.96" vaporized=""/>
    <tripinfo id="flow_9_phase1_E_straight.2" depart="26.00" departLane="S_in_1" departPos="12.70" departSpeed="12.82" departDelay="0.25" arrival="58.00" arrivalLane="E_out_0" arrivalPos="189.60" arrivalSpeed="13.77" duration="32.00" routeLength="375.53" waitingTime="0.00" waitingCount="0" stopTime="0.00" timeLoss="3.24" rerouteNo="0" devices="vehroute_flow_9_phase1_E_straight.2 tripinfo_flow_9_phase1_E_straight.2" vType="moto" speedFactor="0.99" vaporized=""/>
    <tripinfo id="flow_2_phase1_N_left.1" depart="33.00" departLane="S_in_1" departPos="66.71" departSpeed="11.27" departDelay="0.32" arrival="59.00" arrivalLane="W_out_1" arrivalPos="189.60" arrivalSpeed="15.28" duration="26.00" routeLength="331.84" waitingTime="0.00" waitingCount="0" stopTime="0.00" timeLoss="3.80" rerouteNo="0" devices="vehroute_flow_2_phase1_N_left.1 tripinfo_flow_2_phase1_N_left.1" vType="moto" speedFactor="1.12" vaporized=""/>
    <tripinfo id="flow_5_phase1_S_straight.3" depart="40.00" departLane="S_in_0" departPos="132.62" departSpeed="5.13" departDelay="0.31" arrival="65.00" arrivalLane="N_out_1" arrivalPos="189.60" arrivalSpeed="14.29" duration="25.00" routeLength="267.38" waitingTime="0.00" waitingCount="0" stopTime="0.00" timeLoss="6.64" rerouteNo="0" devices="vehroute_flow_5_phase1_S_straight.3 tripinfo_flow_5_phase1_S_straight.3" vType="moto" speedFactor="1.08" vaporized=""/>
    <tripinfo id="flow_7_phase1_S_right.0" depart="0.00" departLane="N_in_0" departPos="8.76" departSpeed="8.07" departDelay="0.00" arrival="66.00" arrivalLane="E_out_0" arrivalPos="189.60" arrivalSpeed="11.51" duration="66.00" routeLength="389.79" waitingTime="16.00" waitingCount="2" stopTime="0.00" timeLoss="31.90" rerouteNo="0" devices="vehroute_flow_7_phase1_S_right.0 tripinfo_flow_7_phase1_S_right.0" vType="container" speedFactor="0.85" vaporized=""/>
    <tripinfo id="flow_11_phase1_E_right.1" depart="33.00" departLane="E_in_0" departPos="73.90" departSpeed="8.86" departDelay="0.51" arrival="71.00" arrivalLane="N_out_0" arrivalPos="189.60" arrivalSpeed="13.26" duration="38.00" routeLength="314.33" waitingTime="9.00" waitingCount="1" stopTime="0.00" timeLoss="15.14" rerouteNo="0" devices="vehroute_flow_11_phase1_E_right.1 tripinfo_flow_11_phase1_E_right.1" vType="moto" speedFactor="1.04" vaporized=""/>
    <tripinfo id="flow_9_phase1_E_straight.3" depart="39.00" departLane="S_in_0" departPos="56.18" departSpeed="11.50" departDelay="0.37" arrival="72.00" arrivalLane="E_out_0" arrivalPos="189.60" arrivalSpeed="11.46" duration="33.00" routeLength="332.05" waitingTime="0.00" waitingCount="0" stopTime="0.00" timeLoss="3.95" rerouteNo="0" devices="vehroute_flow_9_phase1_E_straight.3 tripinfo_flow_9_phase1_E_straight.3" vType="bus" speedFactor="0.85" vaporized=""/>
    <tripinfo id="flow_1_phase1_N_straight.1" depart="14.00" departLane="W_in_1" departPos="31.93" departSpeed="7.04" departDelay="0.48" arrival="73.00" arrivalLane="S_out_0" arrivalPos="189.60" arrivalSpeed="11.93" duration="59.00" routeLength="356.30" waitingTime="22.00" waitingCount="1" stopTime="0.00" timeLoss="28.73" rerouteNo="0" devices="vehroute_flow_1_phase1_N_straight.1 tripinfo_flow_1_phase1_N_straight.1" vType="moto" speedFactor="0.87" vaporized=""/>
    <tripinfo id="flow_3_phase1_N_right.1" depart="35.00" departLane="W_in_1" departPos="175.36" departSpeed="7.65" departDelay="0.82" arrival="75.00" arrivalLane="S_out_0" arrivalPos="189.60" arrivalSpeed="12.01" duration="40.00" routeLength="212.87" waitingTime="17.00" waitingCount="1" stopTime="0.00" timeLoss="21.68" rerouteNo="0" devices="vehroute_flow_3_phase1_N_right.1 tripinfo_flow_3_phase1_N_right.1" vType="moto" speedFactor="0.88" vaporized=""/>
    <tripinfo id="flow_7_phase1_S_right.1" depart="33.00" departLane="N_in_1" departPos="128.68" departSpeed="2.32" departDelay="0.51" arrival="79.00" arrivalLane="E_out_0" arrivalPos="189.60" arrivalSpeed="10.79" duration="46.00" routeLength="269.87" waitingTime="2.00" waitingCount="1" stopTime="0.00" timeLoss="20.29" rerouteNo="0" devices="vehroute_flow_7_phase1_S_right.1 tripinfo_flow_7_phase1_S_right.1" vType="container" speedFactor="0.78" vaporized=""/>
    <tripinfo id="flow_13_phase1_W_straight.2" depart="27.00" departLane="W_in_1" departPos="107.53" departSpeed="1.15" departDelay="0.23" arrival="82.00" arrivalLane="N_out_1" arrivalPos="189.60" arrivalSpeed="13.09" duration="55.00" routeLength="291.02" waitingTime="13.00" waitingCount="1" stopTime="0.00" timeLoss="32.23" rerouteNo="0" devices="vehroute_flow_13_phase1_W_straight.2 tripinfo_flow_13_phase1_W_straight.2" vType="bus" speedFactor="0.97" vaporized=""/>
    <tripinfo id="flow_10_phase1_E_left.1" depart="34.00" departLane="E_in_0" departPos="19.85" departSpeed="3.23" departDelay="0.50" arrival="85.00" arrivalLane="S_out_0" arrivalPos="189.60" arrivalSpeed="10.06" duration="51.00" routeLength="378.70" waitingTime="4.00" waitingCount="1" stopTime="0.00" timeLoss="13.90" rerouteNo="0" devices="vehroute_flow_10_phase1_E_left.1 tripinfo_flow_10_phase1_E_left.1" vType="truck" speedFactor="0.77" vaporized=""/>
    <tripinfo id="flow_2_phase1_N_left.2" depart="66.00" departLane="S_in_1" departPos="162.40" departSpeed="1.57" departDelay="0.64" arrival="85.00" arrivalLane="W_out_1" arrivalPos="189.60" arrivalSpeed="14.55" duration="19.00" routeLength="236.15" waitingTime="0.00" waitingCount="0" stopTime="0.00" timeLoss="2.76" rerouteNo="0" devices="vehroute_flow_2_phase1_N_left.2 tripinfo_flow_2_phase1_N_left.2" vType="emergency" speedFactor="1.10" vaporized=""/>
    <tripinfo id="flow_5_phase1_S_straight.4" depart="53.00" departLane="S_in_0" departPos="91.01" departSpeed="5.01" departDelay="0.08" arrival="91.00" arrivalLane="N_out_0" arrivalPos="189.60" arrivalSpeed="13.07" duration="38.00" routeLength="308.99" waitingTime="0.00" waitingCount="0" stopTime="0.00" timeLoss="14.72" rerouteNo="0" devices="vehroute_flow_5_phase1_S_straight.4 tripinfo_flow_5_phase1_S_straight.4" vType="container" speedFactor="0.97" vaporized=""/>
    <tripinfo id="flow_7_phase1_S_right.2" depart="65.00" departLane="N_in_0" departPos="125.76" departSpeed="4.92" departDelay="0.01" arrival="91.00" arrivalLane="E_out_1" arrivalPos="189.60" arrivalSpeed="13.57" duration="26.00" routeLength="272.79" waitingTime="0.00" waitingCount="0" stopTime="0.00" timeLoss="6.18" rerouteNo="0" devices="vehroute_flow_7_phase1_S_right.2 tripinfo_flow_7_phase1_S_right.2" vType="moto" speedFactor="1.03" vaporized=""/>
    <tripinfo id="flow_9_phase1_E_straight.4" depart="52.00" departLane="S_in_0" departPos="26.76" departSpeed="9.44" departDelay="0.49" arrival="92.00" arrivalLane="E_out_0" arrivalPos="189.60" arrivalSpeed="12.95" duration="40.00" routeLength="361.47" waitingTime="0.00" waitingCount="0" stopTime="0.00" timeLoss="11.68" rerouteNo="0" devices="vehroute_flow_9_phase1_E_straight.4 tripinfo_flow_9_phase1_E_straight.4" vType="bus" speedFactor="0.95" vaporized=""/>
    <tripinfo id="flow_8_phase1_S_uturn.1" depart="66.00" departLane="S_in_0" departPos="104.14" departSpeed="10.72" departDelay="0.07" arrival="95.00" arrivalLane="S_out_1" arrivalPos="189.60" arrivalSpeed="12.84" duration="29.00" routeLength="279.73" waitingTime="0.00" waitingCount="0" stopTime="0.00" timeLoss="6.72" rerouteNo="0" devices="vehroute_flow_8_phase1_S_uturn.1 tripinfo_flow_8_phase1_S_uturn.1" vType="truck" speedFactor="0.94" vaporized=""/>
    <tripinfo id="flow_11_phase1_E_right.2" depart="65.00" departLane="E_in_1" departPos="112.37" departSpeed="10.82" departDelay="0.02" arrival="96.00" arrivalLane="N_out_0" arrivalPos="189.60" arrivalSpeed="14.77" duration="31.00" routeLength="275.86" waitingTime="5.00" waitingCount="1" stopTime="0.00" timeLoss="12.55" rerouteNo="0" devices="vehroute_flow_11_phase1_E_right.2 tripinfo_flow_11_phase1_E_right.2" vType="moto" speedFactor="1.14" vaporized=""/>
    <tripinfo id="flow_15_phase1_W_right.1" depart="33.00" departLane="W_in_1" departPos="110.92" departSpeed="6.24" departDelay="0.16" arrival="97.00" arrivalLane="S_out_0" arrivalPos="189.60" arrivalSpeed="14.71" duration="64.00" routeLength="277.31" waitingTime="31.00" waitingCount="2" stopTime="0.00" timeLoss="44.14" rerouteNo="0" devices="vehroute_flow_15_phase1_W_right.1 tripinfo_flow_15_phase1_W_right.1" vType="moto" speedFactor="1.08" vaporized=""/>
    <tripinfo id="flow_12_phase1_E_uturn.1" depart="66.00" departLane="E_in_1" departPos="168.21" departSpeed="11.63" departDelay="0.19" arrival="99.00" arrivalLane="E_out_1" arrivalPos="189.60" arrivalSpeed="12.07" duration="33.00" routeLength="215.66" waitingTime="9.00" waitingCount="1" stopTime="0.00" timeLoss="15.04" rerouteNo="0" devices="vehroute_flow_12_phase1_E_uturn.1 tripinfo_flow_12_phase1_E_uturn.1" vType="moto" speedFactor="0.95" vaporized=""/>
    <tripinfo id="flow_10_phase1_E_left.2" depart="67.00" departLane="E_in_1" departPos="74.60" departSpeed="12.15" departDelay="0.00" arrival="99.00" arrivalLane="S_out_1" arrivalPos="189.60" arrivalSpeed="14.36" duration="32.00" routeLength="323.95" waitingTime="2.00" waitingCount="1" stopTime="0.00" timeLoss="8.80" rerouteNo="0" devices="vehroute_flow_10_phase1_E_left.2 tripinfo_flow_10_phase1_E_left.2" vType="moto" speedFactor="1.07" vaporized=""/>
    <tripinfo id="flow_1_phase1_N_straight.2" depart="28.00" departLane="W_in_0" departPos="8.88" departSpeed="2.33" departDelay="0.97" arrival="100.00" arrivalLane="S_out_0" arrivalPos="189.60" arrivalSpeed="12.39" duration="72.00" routeLength="379.35" waitingTime="26.00" waitingCount="2" stopTime="0.00" timeLoss="41.48" rerouteNo="0" devices="vehroute_flow_1_phase1_N_straight.2 tripinfo_flow_1_phase1_N_straight.2" vType="moto" speedFactor="0.93" vaporized=""/>
    <tripinfo id="flow_1_phase1_N_straight.3" depart="41.00" departLane="W_in_0" departPos="125.48" departSpeed="7.46" departDelay="0.45" arrival="101.00" arrivalLane="S_out_0" arrivalPos="189.60" arrivalSpeed="15.04" duration="60.00" routeLength="262.75" waitingTime="25.00" waitingCount="2" stopTime="0.00" timeLoss="42.71" rerouteNo="0" devices="vehroute_flow_1_phase1_N_straight.3 tripinfo_flow_1_phase1_N_straight.3" vType="moto" speedFactor="1.20" vaporized=""/>
    <tripinfo id="flow_16_phase1_W_uturn.1" depart="67.00" departLane="E_in_0" departPos="63.10" departSpeed="12.18" departDelay="0.80" arrival="101.00" arrivalLane="S_out_1" arrivalPos="189.60" arrivalSpeed="13.85" duration="34.00" routeLength="335.45" waitingTime="1.00" waitingCount="1" stopTime="0.00" timeLoss="9.77" rerouteNo="0" devices="vehroute_flow_16_phase1_W_uturn.1 tripinfo_flow_16_phase1_W_uturn.1" vType="moto" speedFactor="1.04" vaporized=""/>
    <tripinfo id="flow_1_phase1_N_straight.4" depart="55.00" departLane="W_in_1" departPos="29.12" departSpeed="10.80" departDelay="0.94" arrival="106.00" arrivalLane="S_out_0" arrivalPos="189.60" arrivalSpeed="12.45" duration="51.00" routeLength="359.11" waitingTime="10.00" waitingCount="1" stopTime="0.00" timeLoss="21.68" rerouteNo="0" devices="vehroute_flow_1_phase1_N_straight.4 tripinfo_flow_1_phase1_N_straight.4" vType="truck" speedFactor="0.92" vaporized=""/>
    <tripinfo id="flow_14_phase1_W_left.1" depart="35.00" departLane="W_in_0" departPos="165.68" departSpeed="5.40" departDelay="0.53" arrival="107.00" arrivalLane="N_out_1" arrivalPos="189.60" arrivalSpeed="12.57" duration="72.00" routeLength="232.87" waitingTime="32.00" waitingCount="3" stopTime="0.00" timeLoss="52.44" rerouteNo="0" devices="vehroute_flow_14_phase1_W_left.1 tripinfo_flow_14_phase1_W_left.1" vType="container" speedFactor="0.91" vaporized=""/>
    <tripinfo id="flow_13_phase1_W_straight.3" depart="41.00" departLane="W_in_1" departPos="135.04" departSpeed="4.10" departDelay="0.85" arrival="109.00" arrivalLane="N_out_1" arrivalPos="189.60" arrivalSpeed="14.47" duration="68.00" routeLength="263.51" waitingTime="16.00" waitingCount="2" stopTime="0.00" timeLoss="48.89" rerouteNo="0" devices="vehroute_flow_13_phase1_W_straight.3 tripinfo_flow_13_phase1_W_straight.3" vType="car" speedFactor="1.05" vaporized=""/>
    <tripinfo id="flow_9_phase1_E_straight.5" depart="65.00" departLane="S_in_0" departPos="52.57" departSpeed="8.16" departDelay="0.62" arrival="111.00" arrivalLane="E_out_0" arrivalPos="189.60" arrivalSpeed="13.54" duration="46.00" routeLength="335.66" waitingTime="15.00" waitingCount="1" stopTime="0.00" timeLoss="20.23" rerouteNo="0" devices="vehroute_flow_9_phase1_E_straight.5 tripinfo_flow_9_phase1_E_straight.5" vType="moto" speedFactor="1.00" vaporized=""/>
    <tripinfo id="flow_4_phase1_N_uturn.1" depart="67.00" departLane="N_in_1" departPos="89.17" departSpeed="10.40" departDelay="0.96" arrival="112.00" arrivalLane="N_out_1" arrivalPos="189.60" arrivalSpeed="12.70" duration="45.00" routeLength="294.70" waitingTime="15.00" waitingCount="1" stopTime="0.00" timeLoss="20.97" rerouteNo="0" devices="vehroute_flow_4_phase1_N_uturn.1 tripinfo_flow_4_phase1_N_uturn.1" vType="moto" speedFactor="0.94" vaporized=""/>
    <tripinfo id="flow_9_phase1_E_straight.6" depart="78.00" departLane="S_in_0" departPos="149.69" departSpeed="1.84" departDelay="0.74" arrival="112.00" arrivalLane="E_out_0" arrivalPos="189.60" arrivalSpeed="12.99" duration="34.00" routeLength="238.54" waitingTime="8.00" waitingCount="1" stopTime="0.00" timeLoss="16.26" rerouteNo="0" devices="vehroute_flow_9_phase1_E_straight.6 tripinfo_flow_9_phase1_E_straight.6" vType="moto" speedFactor="1.02" vaporized=""/>
    <tripinfo id="flow_5_phase1_S_straight.6" depart="80.00" departLane="S_in_0" departPos="42.85" departSpeed="1.49" departDelay="0.62" arrival="113.00" arrivalLane="N_out_0" arrivalPos="189.60" arrivalSpeed="14.99" duration="33.00" routeLength="357.15" waitingTime="0.00" waitingCount="0" stopTime="0.00" timeLoss="9.23" rerouteNo="0" devices="vehroute_flow_5_phase1_S_straight.6 tripinfo_flow_5_phase1_S_straight.6" vType="moto" speedFactor="1.10" vaporized=""/>
    <tripinfo id="flow_5_phase1_S_straight.5" depart="67.00" departLane="S_in_1" departPos="2.21" departSpeed="0.01" departDelay="0.85" arrival="114.00" arrivalLane="N_out_1" arrivalPos="189.60" arrivalSpeed="13.52" duration="47.00" routeLength="397.79" waitingTime="6.00" waitingCount="1" stopTime="0.00" timeLoss="18.86" rerouteNo="0" devices="vehroute_flow_5_phase1_S_straight.5 tripinfo_flow_5_phase1_S_straight.5" vType="moto" speedFactor="1.03" vaporized=""/>
    <tripinfo id="flow_6_phase1_S_left.2" depart="67.00" departLane="S_in_0" departPos="21.68" departSpeed="11.28" departDelay="0.10" arrival="115.00" arrivalLane="W_out_1" arrivalPos="189.60" arrivalSpeed="12.24" duration="48.00" routeLength="376.87" waitingTime="8.00" waitingCount="1" stopTime="0.00" timeLoss="16.62" rerouteNo="0" devices="vehroute_flow_6_phase1_S_left.2 tripinfo_flow_6_phase1_S_left.2" vType="truck" speedFactor="0.89" vaporized=""/>
    <tripinfo id="flow_5_phase1_S_straight.7" depart="93.00" departLane="S_in_1" departPos="150.35" departSpeed="7.14" departDelay="0.39" arrival="119.00" arrivalLane="N_out_1" arrivalPos="189.60" arrivalSpeed="12.36" duration="26.00" routeLength="249.65" waitingTime="0.00" waitingCount="0" stopTime="0.00" timeLoss="5.49" rerouteNo="0" devices="vehroute_flow_5_phase1_S_straight.7 tripinfo_flow_5_phase1_S_straight.7" vType="bus" speedFactor="0.90" vaporized=""/>
    <tripinfo id="flow_9_phase1_E_straight.7" depart="91.00" departLane="S_in_0" departPos="41.83" departSpeed="3.34" departDelay="0.86" arrival="121.00" arrivalLane="E_out_0" arrivalPos="189.60" arrivalSpeed="13.50" duration="30.00" routeLength="346.40" waitingTime="0.00" waitingCount="0" stopTime="0.00" timeLoss="4.55" rerouteNo="0" devices="vehroute_flow_9_phase1_E_straight.7 tripinfo_flow_9_phase1_E_straight.7" vType="moto" speedFactor="1.01" vaporized=""/>
    <tripinfo id="flow_5_phase1_S_straight.8" depart="106.00" departLane="S_in_0" departPos="157.03" departSpeed="12.04" departDelay="0.16" arrival="122.00" arrivalLane="N_out_0" arrivalPos="189.60" arrivalSpeed="15.39" duration="16.00" routeLength="242.97" waitingTime="0.00" waitingCount="0" stopTime="0.00" timeLoss="0.49" rerouteNo="0" devices="vehroute_flow_5_phase1_S_straight.8 tripinfo_flow_5_phase1_S_straight.8" vType="emergency" speedFactor="1.14" vaporized=""/>
    <tripinfo id="flow_2_phase1_N_left.3" depart="99.00" departLane="S_in_1" departPos="140.12" departSpeed="9.78" departDelay="0.96" arrival="124.00" arrivalLane="W_out_1" arrivalPos="189.60" arrivalSpeed="11.77" duration="25.00" routeLength="258.43" waitingTime="0.00" waitingCount="0" stopTime="0.00" timeLoss="2.48" rerouteNo="0" devices="vehroute_flow_2_phase1_N_left.3 tripinfo_flow_2_phase1_N_left.3" vType="moto" speedFactor="0.89" vaporized=""/>
    <tripinfo id="flow_7_phase1_S_right.3" depart="98.00" departLane="N_in_1" departPos="86.40" departSpeed="1.77" departDelay="0.52" arrival="128.00" arrivalLane="E_out_1" arrivalPos="189.60" arrivalSpeed="14.66" duration="30.00" routeLength="312.15" waitingTime="0.00" waitingCount="0" stopTime="0.00" timeLoss="7.35" rerouteNo="0" devices="vehroute_flow_7_phase1_S_right.3 tripinfo_flow_7_phase1_S_right.3" vType="moto" speedFactor="1.07" vaporized=""/>
    <tripinfo id="flow_1_phase1_N_straight.5" depart="68.00" departLane="W_in_1" departPos="84.66" departSpeed="1.92" departDelay="0.42" arrival="135.00" arrivalLane="S_out_0" arrivalPos="189.60" arrivalSpeed="11.33" duration="67.00" routeLength="303.57" waitingTime="28.00" waitingCount="2" stopTime="0.00" timeLoss="41.63" rerouteNo="0" devices="vehroute_flow_1_phase1_N_straight.5 tripinfo_flow_1_phase1_N_straight.5" vType="moto" speedFactor="0.90" vaporized=""/>
    <tripinfo id="flow_3_phase1_N_right.2" depart="69.00" departLane="W_in_1" departPos="84.30" departSpeed="0.96" departDelay="0.63" arrival="136.00" arrivalLane="S_out_0" arrivalPos="189.60" arrivalSpeed="13.62" duration="67.00" routeLength="303.93" waitingTime="24.00" waitingCount="2" stopTime="0.00" timeLoss="46.19" rerouteNo="0" devices="vehroute_flow_3_phase1_N_right.2 tripinfo_flow_3_phase1_N_right.2" vType="moto" speedFactor="1.10" vaporized=""/>
    <tripinfo id="flow_11_phase1_E_right.3" depart="98.00" departLane="E_in_1" departPos="16.13" departSpeed="6.81" departDelay="0.53" arrival="136.00" arrivalLane="N_out_0" arrivalPos="189.60" arrivalSpeed="10.81" duration="38.00" routeLength="372.10" waitingTime="0.00" waitingCount="0" stopTime="0.00" timeLoss="4.61" rerouteNo="0" devices="vehroute_flow_11_phase1_E_right.3 tripinfo_flow_11_phase1_E_right.3" vType="moto" speedFactor="0.83" vaporized=""/>
    <tripinfo id="flow_10_phase1_E_left.3" depart="101.00" departLane="E_in_1" departPos="103.46" departSpeed="3.41" departDelay="0.50" arrival="137.00" arrivalLane="S_out_1" arrivalPos="189.60" arrivalSpeed="14.48" duration="36.00" routeLength="295.09" waitingTime="0.00" waitingCount="0" stopTime="0.00" timeLoss="14.71" rerouteNo="0" devices="vehroute_flow_10_phase1_E_left.3 tripinfo_flow_10_phase1_E_left.3" vType="truck" speedFactor="1.07" vaporized=""/>
    <tripinfo id="flow_13_phase1_W_straight.4" depart="54.00" departLane="W_in_0" departPos="128.04" departSpeed="4.72" departDelay="0.46" arrival="139.00" arrivalLane="N_out_1" arrivalPos="189.60" arrivalSpeed="11.98" duration="85.00" routeLength="270.51" waitingTime="35.00" waitingCount="2" stopTime="0.00" timeLoss="61.36" rerouteNo="0" devices="vehroute_flow_13_phase1_W_straight.4 tripinfo_flow_13_phase1_W_straight.4" vType="bus" speedFactor="0.87" vaporized=""/>