<?xml version="1.0" encoding="UTF-8"?>

<!-- generated on 2025-12-08 21:47:20 by Eclipse SUMO sumo Version 1.18.0
<configuration xmlns:xsi="http://www.w3.org/2001/XMLSchema-instance" xsi:noNamespaceSchemaLocation="http://sumo.dlr.de/xsd/sumoConfiguration.xsd">

    <input>
        <net-file value="nets/60p2k/net.net.xml"/>
        <route-files value="nets/60p2k/route_temp_281_124147880884016_33742306.rou.xml"/>
    </input>

    <output>
        <summary-output value="result_ddqn_1.9_0.4/summary_ep_19.xml"/>
        <tripinfo-output value="result_ddqn_1.9_0.4/tripinfo_ep_19.xml"/>
        <vehroute-output value="result_ddqn_1.9_0.4/vehroute_ep_19.xml"/>
    </output>

    <time>
        <begin value="0"/>
    </time>

    <report>
        <verbose value="true"/>
        <no-warnings value="true"/>
        <no-step-log value="true"/>
    </report>

    <traci_server>
        <remote-port value="41459"/>
    </traci_server>

    <gui_only>
        <gui-settings-file value="nets/60p2k/gui-settings.xml"/>
        <quit-on-end value="true"/>
    </gui_only>

</configuration>
-->

<tripinfos xmlns:xsi="http://www.w3.org/2001/XMLSchema-instance" xsi:noNamespaceSchemaLocation="http://sumo.dlr.de/xsd/tripinfo_file.xsd">
    <tripinfo id="flow_5_phase1_S_straight.0" depart="0.00" departLane="S_in_1" departPos="107.37" departSpeed="7.21" departDelay="0.00" arrival="24.00" arrivalLane="E_out_0" arrivalPos="189.60" arrivalSpeed="15.59" duration="24.00" routeLength="280.86" waitingTime="0.00" waitingCount="0" stopTime="0.00" timeLoss="5.10" rerouteNo="0" devices="vehroute_flow_5_phase1_S_straight.0 tripinfo_flow_5_phase1_S_straight.0" vType="moto" speedFactor="1.15" vaporized=""/>
    <tripinfo id="flow_8_phase1_S_uturn.0" depart="0.00" departLane="S_in_0" departPos="120.11" departSpeed="4.48" departDelay="0.00" arrival="24.00" arrivalLane="S_out_1" arrivalPos="189.60" arrivalSpeed="14.40" duration="24.00" routeLength="263.76" waitingTime="0.00" waitingCount="0" stopTime="0.00" timeLoss="4.89" rerouteNo="0" devices="vehroute_flow_8_phase1_S_uturn.0 tripinfo_flow_8_phase1_S_uturn.0" vType="moto" speedFactor="1.05" vaporized=""/>
    <tripinfo id="flow_6_phase1_S_left.0" depart="0.00" departLane="S_in_1" departPos="166.01" departSpeed="0.74" departDelay="0.00" arrival="25.00" arrivalLane="W_out_1" arrivalPos="189.60" arrivalSpeed="11.28" duration="25.00" routeLength="232.54" waitingTime="0.00" waitingCount="0" stopTime="0.00" timeLoss="4.35" rerouteNo="0" devices="vehroute_flow_6_phase1_S_left.0 tripinfo_flow_6_phase1_S_left.0" vType="moto" speedFactor="0.88" vaporized=""/>
    <tripinfo id="flow_3_phase1_N_right.0" depart="0.00" departLane="S_in_0" departPos="103.38" departSpeed="3.75" departDelay="0.00" arrival="27.00" arrivalLane="S_out_1" arrivalPos="189.60" arrivalSpeed="14.28" duration="27.00" routeLength="280.49" waitingTime="0.00" waitingCount="0" stopTime="0.00" timeLoss="7.42" rerouteNo="0" devices="vehroute_flow_3_phase1_N_right.0 tripinfo_flow_3_phase1_N_right.0" vType="car" speedFactor="1.09" vaporized=""/>
    <tripinfo id="flow_4_phase1_N_uturn.0" depart="0.00" departLane="N_in_1" departPos="127.60" departSpeed="0.08" departDelay="0.00" arrival="28.00" arrivalLane="N_out_1" arrivalPos="189.60" arrivalSpeed="11.91" duration="28.00" routeLength="256.27" waitingTime="0.00" waitingCount="0" stopTime="0.00" timeLoss="6.48" rerouteNo="0" devices="vehroute_flow_4_phase1_N_uturn.0 tripinfo_flow_4_phase1_N_uturn.0" vType="car" speedFactor="0.92" vaporized=""/>
    <tripinfo id="flow_14_phase1_W_left.0" depart="0.00" departLane="N_in_1" departPos="50.07" departSpeed="13.54" departDelay="0.00" arrival="29.00" arrivalLane="E_out_1" arrivalPos="189.60" arrivalSpeed="13.31" duration="29.00" routeLength="348.48" waitingTime="0.00" waitingCount="0" stopTime="0.00" timeLoss="2.92" rerouteNo="0" devices="vehroute_flow_14_phase1_W_left.0 tripinfo_flow_14_phase1_W_left.0" vType="moto" speedFactor="1.01" vaporized=""/>
    <tripinfo id="flow_2_phase1_N_left.0" depart="0.00" departLane="N_in_1" departPos="8.27" departSpeed="8.33" departDelay="0.00" arrival="31.00" arrivalLane="E_out_1" arrivalPos="189.60" arrivalSpeed="13.89" duration="31.00" routeLength="390.28" waitingTime="0.00" waitingCount="0" stopTime="0.00" timeLoss="2.70" rerouteNo="0" devices="vehroute_flow_2_phase1_N_left.0 tripinfo_flow_2_phase1_N_left.0" vType="moto" speedFactor="1.02" vaporized=""/>
    <tripinfo id="flow_16_phase1_W_uturn.0" depart="0.00" departLane="W_in_0" departPos="126.68" departSpeed="11.71" departDelay="0.00" arrival="35.00" arrivalLane="W_out_1" arrivalPos="189.60" arrivalSpeed="14.32" duration="35.00" routeLength="257.19" waitingTime="10.00" waitingCount="1" stopTime="0.00" timeLoss="16.20" rerouteNo="0" devices="vehroute_flow_16_phase1_W_uturn.0 tripinfo_flow_16_phase1_W_uturn.0" vType="moto" speedFactor="1.04" vaporized=""/>
    <tripinfo id="flow_12_phase1_E_uturn.0" depart="0.00" departLane="E_in_0" departPos="129.89" departSpeed="13.76" departDelay="0.00" arrival="36.00" arrivalLane="E_out_1" arrivalPos="189.60" arrivalSpeed="13.29" duration="36.00" routeLength="253.98" waitingTime="5.00" waitingCount="2" stopTime="0.00" timeLoss="16.88" rerouteNo="0" devices="vehroute_flow_12_phase1_E_uturn.0 tripinfo_flow_12_phase1_E_uturn.0" vType="moto" speedFactor="1.03" vaporized=""/>
    <tripinfo id="flow_13_phase1_W_straight.1" depart="14.00" departLane="W_in_1" departPos="121.65" departSpeed="2.86" departDelay="0.62" arrival="37.00" arrivalLane="E_out_1" arrivalPos="189.60" arrivalSpeed="15.48" duration="23.00" routeLength="278.35" waitingTime="0.00" waitingCount="0" stopTime="0.00" timeLoss="4.87" rerouteNo="0" devices="vehroute_flow_13_phase1_W_straight.1 tripinfo_flow_13_phase1_W_straight.1" vType="car" speedFactor="1.12" vaporized=""/>
    <tripinfo id="flow_15_phase1_W_right.0" depart="0.00" departLane="W_in_1" departPos="108.38" departSpeed="1.98" departDelay="0.00" arrival="39.00" arrivalLane="S_out_0" arrivalPos="189.60" arrivalSpeed="11.14" duration="39.00" routeLength="279.85" waitingTime="5.00" waitingCount="1" stopTime="0.00" timeLoss="13.67" rerouteNo="0" devices="vehroute_flow_15_phase1_W_right.0 tripinfo_flow_15_phase1_W_right.0" vType="moto" speedFactor="0.85" vaporized=""/>
    <tripinfo id="flow_9_phase1_E_straight.0" depart="0.00" departLane="E_in_0" departPos="168.29" departSpeed="9.83" departDelay="0.00" arrival="40.00" arrivalLane="N_out_0" arrivalPos="189.60" arrivalSpeed="12.31" duration="40.00" routeLength="219.94" waitingTime="12.00" waitingCount="1" stopTime="0.00" timeLoss="21.03" rerouteNo="0" devices="vehroute_flow_9_phase1_E_straight.0 tripinfo_flow_9_phase1_E_straight.0" vType="truck" speedFactor="0.90" vaporized=""/>
    <tripinfo id="flow_13_phase1_W_straight.0" depart="0.00" departLane="W_in_0" departPos="23.77" departSpeed="1.48" departDelay="0.00" arrival="41.00" arrivalLane="E_out_0" arrivalPos="189.60" arrivalSpeed="11.42" duration="41.00" routeLength="376.23" waitingTime="0.00" waitingCount="0" stopTime="0.00" timeLoss="7.60" rerouteNo="0" devices="vehroute_flow_13_phase1_W_straight.0 tripinfo_flow_13_phase1_W_straight.0" vType="container" speedFactor="0.82" vaporized=""/>
    <tripinfo id="flow_11_phase1_E_right.0" depart="0.00" departLane="E_in_1" departPos="144.95" departSpeed="4.02" departDelay="0.00" arrival="42.00" arrivalLane="N_out_0" arrivalPos="189.60" arrivalSpeed="13.03" duration="42.00" routeLength="243.28" waitingTime="9.00" waitingCount="1" stopTime="0.00" timeLoss="22.65" rerouteNo="0" devices="vehroute_flow_11_phase1_E_right.0 tripinfo_flow_11_phase1_E_right.0" vType="bus" speedFactor="0.96" vaporized=""/>
    <tripinfo id="flow_10_phase1_E_left.0" depart="0.00" departLane="E_in_0" departPos="44.88" departSpeed="7.69" departDelay="0.00" arrival="46.00" arrivalLane="S_out_1" arrivalPos="189.60" arrivalSpeed="13.83" duration="46.00" routeLength="353.67" waitingTime="3.00" waitingCount="1" stopTime="0.00" timeLoss="20.32" rerouteNo="0" devices="vehroute_flow_10_phase1_E_left.0 tripinfo_flow_10_phase1_E_left.0" vType="truck" speedFactor="1.02" vaporized=""/>
    <tripinfo id="flow_5_phase1_S_straight.1" depart="14.00" departLane="S_in_1" departPos="31.93" departSpeed="9.28" departDelay="0.77" arrival="47.00" arrivalLane="E_out_0" arrivalPos="189.60" arrivalSpeed="14.94" duration="33.00" routeLength="356.30" waitingTime="2.00" waitingCount="1" stopTime="0.00" timeLoss="10.08" rerouteNo="0" devices="vehroute_flow_5_phase1_S_straight.1 tripinfo_flow_5_phase1_S_straight.1" vType="moto" speedFactor="1.19" vaporized=""/>
    <tripinfo id="flow_1_phase1_N_straight.0" depart="0.00" departLane="N_in_0" departPos="8.62" departSpeed="8.51" departDelay="0.00" arrival="54.00" arrivalLane="N_out_0" arrivalPos="189.60" arrivalSpeed="11.51" duration="54.00" routeLength="375.25" waitingTime="9.00" waitingCount="1" stopTime="0.00" timeLoss="20.83" rerouteNo="0" devices="vehroute_flow_1_phase1_N_straight.0 tripinfo_flow_1_phase1_N_straight.0" vType="bus" speedFactor="0.86" vaporized=""/>
    <tripinfo id="flow_1_phase1_N_straight.1" depart="14.00" departLane="N_in_1" departPos="58.36" departSpeed="11.64" departDelay="0.48" arrival="56.00" arrivalLane="N_out_1" arrivalPos="189.60" arrivalSpeed="11.46" duration="42.00" routeLength="325.51" waitingTime="4.00" waitingCount="1" stopTime="0.00" timeLoss="13.97" rerouteNo="0" devices="vehroute_flow_1_phase1_N_straight.1 tripinfo_flow_1_phase1_N_straight.1" vType="moto" speedFactor="0.87" vaporized=""/>
    <tripinfo id="flow_6_phase1_S_left.1" depart="34.00" departLane="S_in_1" departPos="110.92" departSpeed="11.99" departDelay="0.55" arrival="56.00" arrivalLane="W_out_1" arrivalPos="189.60" arrivalSpeed="13.37" duration="22.00" routeLength="287.63" waitingTime="0.00" waitingCount="0" stopTime="0.00" timeLoss="1.38" rerouteNo="0" devices="vehroute_flow_6_phase1_S_left.1 tripinfo_flow_6_phase1_S_left.1" vType="moto" speedFactor="1.05" vaporized=""/>
    <tripinfo id="flow_1_phase1_N_straight.2" depart="28.00" departLane="N_in_1" departPos="107.53" departSpeed="1.11" departDelay="0.97" arrival="58.00" arrivalLane="N_out_1" arrivalPos="189.60" arrivalSpeed="11.80" duration="30.00" routeLength="276.34" waitingTime="0.00" waitingCount="0" stopTime="0.00" timeLoss="6.96" rerouteNo="0" devices="vehroute_flow_1_phase1_N_straight.2 tripinfo_flow_1_phase1_N_straight.2" vType="moto" speedFactor="0.93" vaporized=""/>
    <tripinfo id="flow_5_phase1_S_straight.2" depart="27.00" departLane="S_in_1" departPos="12.70" departSpeed="12.41" departDelay="0.54" arrival="59.00" arrivalLane="E_out_0" arrivalPos="189.60" arrivalSpeed="13.22" duration="32.00" routeLength="375.53" waitingTime="0.00" waitingCount="0" stopTime="0.00" timeLoss="2.69" rerouteNo="0" devices="vehroute_flow_5_phase1_S_straight.2 tripinfo_flow_5_phase1_S_straight.2" vType="moto" speedFactor="0.96" vaporized=""/>
    <tripinfo id="flow_15_phase1_W_right.1" depart="33.00" departLane="W_in_0" departPos="73.90" departSpeed="9.22" departDelay="0.16" arrival="59.00" arrivalLane="S_out_0" arrivalPos="189.60" arrivalSpeed="14.58" duration="26.00" routeLength="314.33" waitingTime="0.00" waitingCount="0" stopTime="0.00" timeLoss="4.53" rerouteNo="0" devices="vehroute_flow_15_phase1_W_right.1 tripinfo_flow_15_phase1_W_right.1" vType="moto" speedFactor="1.08" vaporized=""/>
    <tripinfo id="flow_13_phase1_W_straight.3" depart="41.00" departLane="W_in_0" departPos="125.48" departSpeed="6.79" departDelay="0.85" arrival="62.00" arrivalLane="E_out_0" arrivalPos="189.60" arrivalSpeed="13.47" duration="21.00" routeLength="274.52" waitingTime="0.00" waitingCount="0" stopTime="0.00" timeLoss="1.62" rerouteNo="0" devices="vehroute_flow_13_phase1_W_straight.3 tripinfo_flow_13_phase1_W_straight.3" vType="car" speedFactor="1.05" vaporized=""/>
    <tripinfo id="flow_9_phase1_E_straight.1" depart="13.00" departLane="E_in_0" departPos="131.13" departSpeed="5.72" departDelay="0.12" arrival="66.00" arrivalLane="N_out_1" arrivalPos="189.60" arrivalSpeed="15.62" duration="53.00" routeLength="257.10" waitingTime="12.00" waitingCount="2" stopTime="0.00" timeLoss="36.40" rerouteNo="0" devices="vehroute_flow_9_phase1_E_straight.1 tripinfo_flow_9_phase1_E_straight.1" vType="moto" speedFactor="1.16" vaporized=""/>
    <tripinfo id="flow_13_phase1_W_straight.2" depart="27.00" departLane="W_in_1" departPos="59.51" departSpeed="13.32" departDelay="0.23" arrival="67.00" arrivalLane="E_out_0" arrivalPos="189.60" arrivalSpeed="12.91" duration="40.00" routeLength="340.49" waitingTime="3.00" waitingCount="1" stopTime="0.00" timeLoss="13.78" rerouteNo="0" devices="vehroute_flow_13_phase1_W_straight.2 tripinfo_flow_13_phase1_W_straight.2" vType="bus" speedFactor="0.97" vaporized=""/>
    <tripinfo id="flow_7_phase1_S_right.0" depart="0.00" departLane="E_in_0" departPos="8.76" departSpeed="8.07" departDelay="0.00" arrival="69.00" arrivalLane="N_out_0" arrivalPos="189.60" arrivalSpeed="11.25" duration="69.00" routeLength="379.47" waitingTime="14.00" waitingCount="1" stopTime="0.00" timeLoss="35.68" rerouteNo="0" devices="vehroute_flow_7_phase1_S_right.0 tripinfo_flow_7_phase1_S_right.0" vType="container" speedFactor="0.85" vaporized=""/>
    <tripinfo id="flow_11_phase1_E_right.1" depart="33.00" departLane="E_in_1" departPos="128.68" departSpeed="3.06" departDelay="0.51" arrival="71.00" arrivalLane="N_out_0" arrivalPos="189.60" arrivalSpeed="13.44" duration="38.00" routeLength="259.55" waitingTime="4.00" waitingCount="1" stopTime="0.00" timeLoss="18.83" rerouteNo="0" devices="vehroute_flow_11_phase1_E_right.1 tripinfo_flow_11_phase1_E_right.1" vType="moto" speedFactor="1.04" vaporized=""/>
    <tripinfo id="flow_5_phase1_S_straight.3" depart="40.00" departLane="S_in_0" departPos="56.18" departSpeed="8.58" departDelay="0.31" arrival="74.00" arrivalLane="E_out_0" arrivalPos="189.60" arrivalSpeed="14.31" duration="34.00" routeLength="332.05" waitingTime="4.00" waitingCount="1" stopTime="0.00" timeLoss="10.77" rerouteNo="0" devices="vehroute_flow_5_phase1_S_straight.3 tripinfo_flow_5_phase1_S_straight.3" vType="moto" speedFactor="1.08" vaporized=""/>
    <tripinfo id="flow_10_phase1_E_left.1" depart="34.00" departLane="E_in_1" departPos="185.21" departSpeed="3.70" departDelay="0.50" arrival="76.00" arrivalLane="S_out_0" arrivalPos="189.60" arrivalSpeed="10.03" duration="42.00" routeLength="213.34" waitingTime="10.00" waitingCount="2" stopTime="0.00" timeLoss="20.83" rerouteNo="0" devices="vehroute_flow_10_phase1_E_left.1 tripinfo_flow_10_phase1_E_left.1" vType="truck" speedFactor="0.77" vaporized=""/>
    <tripinfo id="flow_3_phase1_N_right.1" depart="35.00" departLane="S_in_0" departPos="19.85" departSpeed="3.71" departDelay="0.82" arrival="77.00" arrivalLane="S_out_1" arrivalPos="189.60" arrivalSpeed="11.99" duration="42.00" routeLength="364.02" waitingTime="4.00" waitingCount="1" stopTime="0.00" timeLoss="10.94" rerouteNo="0" devices="vehroute_flow_3_phase1_N_right.1 tripinfo_flow_3_phase1_N_right.1" vType="moto" speedFactor="0.88" vaporized=""/>
    <tripinfo id="flow_1_phase1_N_straight.3" depart="41.00" departLane="N_in_0" departPos="132.62" departSpeed="5.49" departDelay="0.45" arrival="80.00" arrivalLane="N_out_1" arrivalPos="189.60" arrivalSpeed="14.75" duration="39.00" routeLength="251.25" waitingTime="8.00" waitingCount="1" stopTime="0.00" timeLoss="21.95" rerouteNo="0" devices="vehroute_flow_1_phase1_N_straight.3 tripinfo_flow_1_phase1_N_straight.3" vType="moto" speedFactor="1.20" vaporized=""/>
    <tripinfo id="flow_14_phase1_W_left.1" depart="35.00" departLane="N_in_1" departPos="93.41" departSpeed="7.95" departDelay="0.53" arrival="82.00" arrivalLane="E_out_1" arrivalPos="189.60" arrivalSpeed="12.20" duration="47.00" routeLength="305.14" waitingTime="10.00" waitingCount="1" stopTime="0.00" timeLoss="21.71" rerouteNo="0" devices="vehroute_flow_14_phase1_W_left.1 tripinfo_flow_14_phase1_W_left.1" vType="container" speedFactor="0.91" vaporized=""/>
    <tripinfo id="flow_2_phase1_N_left.1" depart="33.00" departLane="N_in_0" departPos="8.88" departSpeed="2.82" departDelay="0.32" arrival="84.00" arrivalLane="E_out_1" arrivalPos="189.60" arrivalSpeed="14.85" duration="51.00" routeLength="389.67" waitingTime="7.00" waitingCount="1" stopTime="0.00" timeLoss="24.80" rerouteNo="0" devices="vehroute_flow_2_phase1_N_left.1 tripinfo_flow_2_phase1_N_left.1" vType="moto" speedFactor="1.12" vaporized=""/>
    <tripinfo id="flow_5_phase1_S_straight.4" depart="53.00" departLane="S_in_0" departPos="26.76" departSpeed="9.62" departDelay="0.08" arrival="87.00" arrivalLane="E_out_0" arrivalPos="189.60" arrivalSpeed="13.24" duration="34.00" routeLength="361.47" waitingTime="0.00" waitingCount="0" stopTime="0.00" timeLoss="6.05" rerouteNo="0" devices="vehroute_flow_5_phase1_S_straight.4 tripinfo_flow_5_phase1_S_straight.4" vType="container" speedFactor="0.97" vaporized=""/>
    <tripinfo id="flow_9_phase1_E_straight.2" depart="26.00" departLane="E_in_1" departPos="52.87" departSpeed="0.38" departDelay="0.25" arrival="88.00" arrivalLane="N_out_0" arrivalPos="189.60" arrivalSpeed="13.10" duration="62.00" routeLength="335.36" waitingTime="16.00" waitingCount="2" stopTime="0.00" timeLoss="36.33" rerouteNo="0" devices="vehroute_flow_9_phase1_E_straight.2 tripinfo_flow_9_phase1_E_straight.2" vType="moto" speedFactor="0.99" vaporized=""/>
    <tripinfo id="flow_13_phase1_W_straight.4" depart="54.00" departLane="W_in_0" departPos="91.01" departSpeed="4.49" departDelay="0.46" arrival="93.00" arrivalLane="E_out_0" arrivalPos="189.60" arrivalSpeed="11.95" duration="39.00" routeLength="308.99" waitingTime="2.00" waitingCount="1" stopTime="0.00" timeLoss="13.08" rerouteNo="0" devices="vehroute_flow_13_phase1_W_straight.4 tripinfo_flow_13_phase1_W_straight.4" vType="bus" speedFactor="0.87" vaporized=""/>
    <tripinfo id="flow_12_phase1_E_uturn.1" depart="66.00" departLane="E_in_0" departPos="104.14" departSpeed="10.86" departDelay="0.19" arrival="93.00" arrivalLane="E_out_1" arrivalPos="189.60" arrivalSpeed="12.17" duration="27.00" routeLength="279.73" waitingTime="0.00" waitingCount="0" stopTime="0.00" timeLoss="5.01" rerouteNo="0" devices="vehroute_flow_12_phase1_E_uturn.1 tripinfo_flow_12_phase1_E_uturn.1" vType="moto" speedFactor="0.95" vaporized=""/>
    <tripinfo id="flow_13_phase1_W_straight.5" depart="67.00" departLane="W_in_1" departPos="21.68" departSpeed="6.53" departDelay="0.08" arrival="94.00" arrivalLane="E_out_1" arrivalPos="189.60" arrivalSpeed="15.30" duration="27.00" routeLength="378.32" waitingTime="0.00" waitingCount="0" stopTime="0.00" timeLoss="3.13" rerouteNo="0" devices="vehroute_flow_13_phase1_W_straight.5 tripinfo_flow_13_phase1_W_straight.5" vType="moto" speedFactor="1.14" vaporized=""/>
    <tripinfo id="flow_15_phase1_W_right.2" depart="66.00" departLane="W_in_1" departPos="168.21" departSpeed="11.63" departDelay="0.32" arrival="95.00" arrivalLane="S_out_0" arrivalPos="189.60" arrivalSpeed="12.22" duration="29.00" routeLength="220.02" waitingTime="4.00" waitingCount="1" stopTime="0.00" timeLoss="9.57" rerouteNo="0" devices="vehroute_flow_15_phase1_W_right.2 tripinfo_flow_15_phase1_W_right.2" vType="moto" speedFactor="0.89" vaporized=""/>
    <tripinfo id="flow_16_phase1_W_uturn.1" depart="67.00" departLane="W_in_1" departPos="74.60" departSpeed="11.83" departDelay="0.80" arrival="96.00" arrivalLane="W_out_1" arrivalPos="189.60" arrivalSpeed="14.14" duration="29.00" routeLength="309.27" waitingTime="0.00" waitingCount="0" stopTime="0.00" timeLoss="5.29" rerouteNo="0" devices="vehroute_flow_16_phase1_W_uturn.1 tripinfo_flow_16_phase1_W_uturn.1" vType="moto" speedFactor="1.04" vaporized=""/>
    <tripinfo id="flow_7_phase1_S_right.1" depart="33.00" departLane="E_in_1" departPos="66.71" departSpeed="7.87" departDelay="0.51" arrival="98.00" arrivalLane="N_out_0" arrivalPos="189.60" arrivalSpeed="10.44" duration="65.00" routeLength="321.52" waitingTime="12.00" waitingCount="1" stopTime="0.00" timeLoss="33.89" rerouteNo="0" devices="vehroute_flow_7_phase1_S_right.1 tripinfo_flow_7_phase1_S_right.1" vType="container" speedFactor="0.78" vaporized=""/>
    <tripinfo id="flow_10_phase1_E_left.2" depart="67.00" departLane="E_in_1" departPos="92.22" departSpeed="0.17" departDelay="0.00" arrival="99.00" arrivalLane="S_out_1" arrivalPos="189.60" arrivalSpeed="13.71" duration="32.00" routeLength="306.33" waitingTime="1.00" waitingCount="1" stopTime="0.00" timeLoss="10.17" rerouteNo="0" devices="vehroute_flow_10_phase1_E_left.2 tripinfo_flow_10_phase1_E_left.2" vType="moto" speedFactor="1.07" vaporized=""/>
    <tripinfo id="flow_9_phase1_E_straight.3" depart="39.00" departLane="E_in_0" departPos="86.42" departSpeed="8.41" departDelay="0.37" arrival="100.00" arrivalLane="N_out_0" arrivalPos="189.60" arrivalSpeed="11.23" duration="61.00" routeLength="301.81" waitingTime="10.00" waitingCount="1" stopTime="0.00" timeLoss="34.37" rerouteNo="0" devices="vehroute_flow_9_phase1_E_straight.3 tripinfo_flow_9_phase1_E_straight.3" vType="bus" speedFactor="0.85" vaporized=""/>
    <tripinfo id="flow_5_phase1_S_straight.5" depart="67.00" departLane="S_in_1" departPos="89.17" departSpeed="11.39" departDelay="0.85" arrival="100.00" arrivalLane="E_out_0" arrivalPos="189.60" arrivalSpeed="13.29" duration="33.00" routeLength="299.06" waitingTime="4.00" waitingCount="1" stopTime="0.00" timeLoss="11.36" rerouteNo="0" devices="vehroute_flow_5_phase1_S_straight.5 tripinfo_flow_5_phase1_S_straight.5" vType="moto" speedFactor="1.03" vaporized=""/>
    <tripinfo id="flow_5_phase1_S_straight.6" depart="80.00" departLane="S_in_1" departPos="152.01" departSpeed="5.60" departDelay="0.62" arrival="102.00" arrivalLane="E_out_0" arrivalPos="189.60" arrivalSpeed="14.82" duration="22.00" routeLength="236.22" waitingTime="0.00" waitingCount="0" stopTime="0.00" timeLoss="5.20" rerouteNo="0" devices="vehroute_flow_5_phase1_S_straight.6 tripinfo_flow_5_phase1_S_straight.6" vType="moto" speedFactor="1.10" vaporized=""/>
    <tripinfo id="flow_1_phase1_N_straight.4" depart="55.00" departLane="N_in_0" departPos="128.04" departSpeed="4.99" departDelay="0.94" arrival="104.00" arrivalLane="N_out_1" arrivalPos="189.60" arrivalSpeed="12.16" duration="49.00" routeLength="255.83" waitingTime="13.00" waitingCount="1" stopTime="0.00" timeLoss="27.49" rerouteNo="0" devices="vehroute_flow_1_phase1_N_straight.4 tripinfo_flow_1_phase1_N_straight.4" vType="truck" speedFactor="0.92" vaporized=""/>
    <tripinfo id="flow_2_phase1_N_left.2" depart="66.00" departLane="N_in_1" departPos="112.37" departSpeed="10.40" departDelay="0.64" arrival="105.00" arrivalLane="E_out_1" arrivalPos="189.60" arrivalSpeed="15.15" duration="39.00" routeLength="286.18" waitingTime="10.00" waitingCount="1" stopTime="0.00" timeLoss="19.89" rerouteNo="0" devices="vehroute_flow_2_phase1_N_left.2 tripinfo_flow_2_phase1_N_left.2" vType="emergency" speedFactor="1.10" vaporized=""/>
    <tripinfo id="flow_8_phase1_S_uturn.1" depart="66.00" departLane="S_in_1" departPos="162.40" departSpeed="1.34" departDelay="0.07" arrival="107.00" arrivalLane="S_out_1" arrivalPos="189.60" arrivalSpeed="12.56" duration="41.00" routeLength="221.47" waitingTime="8.00" waitingCount="1" stopTime="0.00" timeLoss="22.73" rerouteNo="0" devices="vehroute_flow_8_phase1_S_uturn.1 tripinfo_flow_8_phase1_S_uturn.1" vType="truck" speedFactor="0.94" vaporized=""/>
    <tripinfo id="flow_1_phase1_N_straight.5" depart="68.00" departLane="N_in_1" departPos="177.50" departSpeed="1.83" departDelay="0.42" arrival="107.00" arrivalLane="N_out_1" arrivalPos="189.60" arrivalSpeed="11.84" duration="39.00" routeLength="206.37" waitingTime="12.00" waitingCount="1" stopTime="0.00" timeLoss="21.11" rerouteNo="0" devices="vehroute_flow_1_phase1_N_straight.5 tripinfo_flow_1_phase1_N_straight.5" vType="moto" speedFactor="0.90" vaporized=""/>
    <tripinfo id="flow_3_phase1_N_right.2" depart="69.00" departLane="S_in_1" departPos="159.96" departSpeed="2.88" departDelay="0.63" arrival="109.00" arrivalLane="S_out_1" arrivalPos="189.60" arrivalSpeed="14.39" duration="40.00" routeLength="223.91" waitingTime="7.00" waitingCount="1" stopTime="0.00" timeLoss="24.06" rerouteNo="0" devices="vehroute_flow_3_phase1_N_right.2 tripinfo_flow_3_phase1_N_right.2" vType="moto" speedFactor="1.10" vaporized=""/>
    <tripinfo id="flow_6_phase1_S_left.2" depart="67.00" departLane="S_in_1" departPos="124.88" departSpeed="0.01" departDelay="0.10" arrival="112.00" arrivalLane="W_out_1" arrivalPos="189.60" arrivalSpeed="12.30" duration="45.00" routeLength="273.67" waitingTime="3.00" waitingCount="1" stopTime="0.00" timeLoss="21.51" rerouteNo="0" devices="vehroute_flow_6_phase1_S_left.2 tripinfo_flow_6_phase1_S_left.2" vType="truck" speedFactor="0.89" vaporized=""/>
    <tripinfo id="flow_13_phase1_W_straight.6" depart="81.00" departLane="W_in_0" departPos="24.55" departSpeed="7.86" departDelay="0.70" arrival="113.00" arrivalLane="E_out_0" arrivalPos="189.60" arrivalSpeed="12.37" duration="32.00" routeLength="375.45" waitingTime="0.00" waitingCount="0" stopTime="0.00" timeLoss="3.92" rerouteNo="0" devices="vehroute_flow_13_phase1_W_straight.6 tripinfo_flow_13_phase1_W_straight.6" vType="car" speedFactor="0.98" vaporized=""/>
    <tripinfo id="flow_9_phase1_E_straight.4" depart="52.00" departLane="E_in_1" departPos="135.04" departSpeed="3.72" departDelay="0.49" arrival="119.00" arrivalLane="N_out_0" arrivalPos="189.60" arrivalSpeed="13.05" duration="67.00" routeLength="253.19" waitingTime="22.00" waitingCount="3" stopTime="0.00" timeLoss="46.53" rerouteNo="0" devices="vehroute_flow_9_phase1_E_straight.4 tripinfo_flow_9_phase1_E_straight.4" vType="bus" speedFactor="0.95" vaporized=""/>
    <tripinfo id="flow_9_phase1_E_straight.6" depart="78.00" departLane="E_in_1" departPos="137.11" departSpeed="4.59" departDelay="0.74" arrival="119.00" arrivalLane="N_out_1" arrivalPos="189.60" arrivalSpeed="12.91" duration="41.00" routeLength="251.12" waitingTime="10.00" waitingCount="1" stopTime="0.00" timeLoss="22.50" rerouteNo="0" devices="vehroute_flow_9_phase1_E_straight.6 tripinfo_flow_9_phase1_E_straight.6" vType="moto" speedFactor="1.02" vaporized=""/>
    <tripinfo id="flow_7_phase1_S_right.3" depart="98.00" departLane="E_in_1" departPos="150.35" departSpeed="8.44" departDelay="0.52" arrival="121.00" arrivalLane="N_out_0" arrivalPos="189.60" arrivalSpeed="14.69" duration="23.00" routeLength="237.88" waitingTime="0.00" waitingCount="0" stopTime="0.00" timeLoss="6.08" rerouteNo="0" devices="vehroute_flow_7_phase1_S_right.3 tripinfo_flow_7_phase1_S_right.3" vType="moto" speedFactor="1.07" vaporized=""/>
    <tripinfo id="flow_6_phase1_S_left.3" depart="101.00" departLane="S_in_0" departPos="150.32" departSpeed="6.56" departDelay="0.64" arrival="126.00" arrivalLane="W_out_1" arrivalPos="189.60" arrivalSpeed="14.09" duration="25.00" routeLength="248.23" waitingTime="1.00" waitingCount="1" stopTime="0.00" timeLoss="7.80" rerouteNo="0" devices="vehroute_flow_6_phase1_S_left.3 tripinfo_flow_6_phase1_S_left.3" vType="car" speedFactor="1.10" vaporized=""/>
    <tripinfo id="flow_4_phase1_N_uturn.1" depart="67.00" departLane="N_in_0" departPos="31.76" departSpeed="11.77" departDelay="0.96" arrival="127.00" arrivalLane="N_out_1" arrivalPos="189.60" arrivalSpeed="12.74" duration="60.00" routeLength="352.11" waitingTime="20.00" waitingCount="2" stopTime="0.00" timeLoss="32.10" rerouteNo="0" devices="vehroute_flow_4_phase1_N_uturn.1 tripinfo_flow_4_phase1_N_uturn.1" vType="moto" speedFactor="0.94" vaporized=""/>
    <tripinfo id="flow_5_phase1_S_straight.7" depart="93.00" departLane="S_in_1" departPos="47.50" departSpeed="4.03" departDelay="0.39" arrival="129.00" arrivalLane="E_out_0" arrivalPos="189.60" arrivalSpeed="12.18" duration="36.00" routeLength="340.73" waitingTime="0.00" waitingCount="0" stopTime="0.00" timeLoss="7.09" rerouteNo="0" devices="vehroute_flow_5_phase1_S_straight.7 tripinfo_flow_5_phase1_S_straight.7" vType="bus" speedFactor="0.90" vaporized=""/>
    <tripinfo id="flow_14_phase1_W_left.2" depart="69.00" departLane="N_in_1" departPos="29.07" departSpeed="2.59" departDelay="0.06" arrival="130.00" arrivalLane="E_out_1" arrivalPos="189.60" arrivalSpeed="12.25" duration="61.00" routeLength="369.48" waitingTime="15.00" waitingCount="2" stopTime="0.00" timeLoss="30.66" rerouteNo="0" devices="vehroute_flow_14_phase1_W_left.2 tripinfo_flow_14_phase1_W_left.2" vType="car" speedFactor="0.90" vaporized=""/>
    <tripinfo id="flow_14_phase1_W_left.3" depart="104.00" departLane="N_in_0" departPos="178.62" departSpeed="7.74" departDelay="0.59" arrival="132.00" arrivalLane="E_out_1" arrivalPos="189.60" arrivalSpeed="14.23" duration="28.00" routeLength="219.93" waitingTime="5.00" waitingCount="2" stopTime="0.00" timeLoss="12.34" rerouteNo="0" devices="vehroute_flow_14_phase1_W_left.3 tripinfo_flow_14_phase1_W_left.3" vType="moto" speedFactor="1.09" vaporized=""/>
    <tripinfo id="flow_5_phase1_S_straight.8" depart="106.00" departLane="S_in_0" departPos="43.80" departSpeed="3.51" departDelay="0.16" arrival="132.00" arrivalLane="E_out_0" arrivalPos="189.60" arrivalSpeed="15.64" duration="26.00" routeLength="344.43" waitingTime="0.00" waitingCount="0" stopTime="0.00" timeLoss="3.39" rerouteNo="0" devices="vehroute_flow_5_phase1_S_straight.8 tripinfo_flow_5_phase1_S_straight.8" vType="emergency" speedFactor="1.14" vaporized=""/>
    <tripinfo id="flow_1_phase1_N_straight.6" depart="82.00" departLane="N_in_0" departPos="18.52" departSpeed="1.56" departDelay="0.90" arrival="133.00" arrivalLane="N_out_1" arrivalPos="189.60" arrivalSpeed="12.80" duration="51.00" routeLength="365.35" waitingTime="11.00" waitingCount="1" stopTime="0.00" timeLoss="22.80" rerouteNo="0" devices="vehroute_flow_1_phase1_N_straight.6 tripinfo_flow_1_phase1_N_straight.6" vType="car" speedFactor="0.98" vaporized=""/>