<?xml version="1.0" encoding="UTF-8"?>

<!-- generated on 2025-12-08 21:41:29 by Eclipse SUMO sumo Version 1.18.0
<configuration xmlns:xsi="http://www.w3.org/2001/XMLSchema-instance" xsi:noNamespaceSchemaLocation="http://sumo.dlr.de/xsd/sumoConfiguration.xsd">

    <input>
        <net-file value="nets/60p2k/net.net.xml"/>
        <route-files value="nets/60p2k/route_temp_281_124147880884016_33742306.rou.xml"/>
    </input>

    <output>
        <summary-output value="result_ddqn_1.9_0.4/summary_ep_6.xml"/>
        <tripinfo-output value="result_ddqn_1.9_0.4/tripinfo_ep_6.xml"/>
        <vehroute-output value="result_ddqn_1.9_0.4/vehroute_ep_6.xml"/>
    </output>

    <time>
        <begin value="0"/>
    </time>

    <report>
        <verbose value="true"/>
        <no-warnings value="true"/>
        <no-step-log value="true"/>
    </report>

    <traci_server>
        <remote-port value="49627"/>
    </traci_server>

    <gui_only>
        <gui-settings-file value="nets/60p2k/gui-settings.xml"/>
        <quit-on-end value="true"/>
    </gui_only>

</configuration>
-->

<tripinfos xmlns:xsi="http://www.w3.org/2001/XMLSchema-instance" xsi:noNamespaceSchemaLocation="http://sumo.dlr.de/xsd/tripinfo_file.xsd">
    <tripinfo id="flow_3_phase1_N_right.0" depart="0.00" departLane="N_in_0" departPos="103.38" departSpeed="3.75" departDelay="0.00" arrival="24.00" arrivalLane="W_out_0" arrivalPos="189.60" arrivalSpeed="15.13" duration="24.00" routeLength="284.85" waitingTime="0.00" waitingCount="0" stopTime="0.00" timeLoss="4.44" rerouteNo="0" devices="vehroute_flow_3_phase1_N_right.0 tripinfo_flow_3_phase1_N_right.0" vType="car" speedFactor="1.09" vaporized=""/>
    <tripinfo id="flow_8_phase1_S_uturn.0" depart="0.00" departLane="S_in_0" departPos="120.11" departSpeed="4.48" departDelay="0.00" arrival="24.00" arrivalLane="S_out_1" arrivalPos="189.60" arrivalSpeed="13.35" duration="24.00" routeLength="263.76" waitingTime="0.00" waitingCount="0" stopTime="0.00" timeLoss="4.86" rerouteNo="0" devices="vehroute_flow_8_phase1_S_uturn.0 tripinfo_flow_8_phase1_S_uturn.0" vType="moto" speedFactor="1.05" vaporized=""/>
    <tripinfo id="flow_5_phase1_S_straight.0" depart="0.00" departLane="S_in_1" departPos="107.37" departSpeed="7.21" departDelay="0.00" arrival="25.00" arrivalLane="N_out_1" arrivalPos="189.60" arrivalSpeed="15.89" duration="25.00" routeLength="292.63" waitingTime="0.00" waitingCount="0" stopTime="0.00" timeLoss="6.23" rerouteNo="0" devices="vehroute_flow_5_phase1_S_straight.0 tripinfo_flow_5_phase1_S_straight.0" vType="moto" speedFactor="1.15" vaporized=""/>
    <tripinfo id="flow_6_phase1_S_left.0" depart="0.00" departLane="S_in_1" departPos="166.01" departSpeed="0.74" departDelay="0.00" arrival="25.00" arrivalLane="W_out_1" arrivalPos="189.60" arrivalSpeed="11.28" duration="25.00" routeLength="232.54" waitingTime="0.00" waitingCount="0" stopTime="0.00" timeLoss="4.37" rerouteNo="0" devices="vehroute_flow_6_phase1_S_left.0 tripinfo_flow_6_phase1_S_left.0" vType="moto" speedFactor="0.88" vaporized=""/>
    <tripinfo id="flow_16_phase1_W_uturn.0" depart="0.00" departLane="N_in_0" departPos="135.67" departSpeed="9.64" departDelay="0.00" arrival="30.00" arrivalLane="E_out_1" arrivalPos="189.60" arrivalSpeed="14.32" duration="30.00" routeLength="262.88" waitingTime="4.00" waitingCount="1" stopTime="0.00" timeLoss="10.76" rerouteNo="0" devices="vehroute_flow_16_phase1_W_uturn.0 tripinfo_flow_16_phase1_W_uturn.0" vType="moto" speedFactor="1.04" vaporized=""/>
    <tripinfo id="flow_2_phase1_N_left.0" depart="0.00" departLane="N_in_1" departPos="8.27" departSpeed="8.33" departDelay="0.00" arrival="31.00" arrivalLane="W_out_0" arrivalPos="189.60" arrivalSpeed="13.80" duration="31.00" routeLength="379.96" waitingTime="0.00" waitingCount="0" stopTime="0.00" timeLoss="3.47" rerouteNo="0" devices="vehroute_flow_2_phase1_N_left.0 tripinfo_flow_2_phase1_N_left.0" vType="moto" speedFactor="1.02" vaporized=""/>
    <tripinfo id="flow_4_phase1_N_uturn.0" depart="0.00" departLane="N_in_1" departPos="127.60" departSpeed="0.08" departDelay="0.00" arrival="33.00" arrivalLane="E_out_1" arrivalPos="189.60" arrivalSpeed="12.69" duration="33.00" routeLength="270.95" waitingTime="3.00" waitingCount="1" stopTime="0.00" timeLoss="11.09" rerouteNo="0" devices="vehroute_flow_4_phase1_N_uturn.0 tripinfo_flow_4_phase1_N_uturn.0" vType="car" speedFactor="0.92" vaporized=""/>
    <tripinfo id="flow_14_phase1_W_left.0" depart="0.00" departLane="W_in_1" departPos="42.31" departSpeed="3.71" departDelay="0.00" arrival="36.00" arrivalLane="W_out_1" arrivalPos="189.60" arrivalSpeed="13.89" duration="36.00" routeLength="341.56" waitingTime="2.00" waitingCount="1" stopTime="0.00" timeLoss="10.20" rerouteNo="0" devices="vehroute_flow_14_phase1_W_left.0 tripinfo_flow_14_phase1_W_left.0" vType="moto" speedFactor="1.01" vaporized=""/>
    <tripinfo id="flow_11_phase1_E_right.0" depart="0.00" departLane="E_in_1" departPos="144.95" departSpeed="4.02" departDelay="0.00" arrival="39.00" arrivalLane="N_out_0" arrivalPos="189.60" arrivalSpeed="13.21" duration="39.00" routeLength="243.28" waitingTime="8.00" waitingCount="1" stopTime="0.00" timeLoss="20.04" rerouteNo="0" devices="vehroute_flow_11_phase1_E_right.0 tripinfo_flow_11_phase1_E_right.0" vType="bus" speedFactor="0.96" vaporized=""/>
    <tripinfo id="flow_9_phase1_E_straight.0" depart="0.00" departLane="W_in_0" departPos="168.29" departSpeed="9.83" departDelay="0.00" arrival="40.00" arrivalLane="S_out_0" arrivalPos="189.60" arrivalSpeed="12.24" duration="40.00" routeLength="219.94" waitingTime="13.00" waitingCount="1" stopTime="0.00" timeLoss="21.30" rerouteNo="0" devices="vehroute_flow_9_phase1_E_straight.0 tripinfo_flow_9_phase1_E_straight.0" vType="truck" speedFactor="0.90" vaporized=""/>
    <tripinfo id="flow_10_phase1_E_left.0" depart="0.00" departLane="E_in_0" departPos="44.88" departSpeed="7.69" departDelay="0.00" arrival="40.00" arrivalLane="S_out_1" arrivalPos="189.60" arrivalSpeed="13.36" duration="40.00" routeLength="353.67" waitingTime="2.00" waitingCount="1" stopTime="0.00" timeLoss="13.70" rerouteNo="0" devices="vehroute_flow_10_phase1_E_left.0 tripinfo_flow_10_phase1_E_left.0" vType="truck" speedFactor="1.02" vaporized=""/>
    <tripinfo id="flow_12_phase1_E_uturn.0" depart="0.00" departLane="E_in_0" departPos="5.65" departSpeed="13.76" departDelay="0.00" arrival="40.00" arrivalLane="E_out_1" arrivalPos="189.60" arrivalSpeed="14.00" duration="40.00" routeLength="378.22" waitingTime="1.00" waitingCount="1" stopTime="0.00" timeLoss="12.35" rerouteNo="0" devices="vehroute_flow_12_phase1_E_uturn.0 tripinfo_flow_12_phase1_E_uturn.0" vType="moto" speedFactor="1.03" vaporized=""/>
    <tripinfo id="flow_13_phase1_W_straight.1" depart="14.00" departLane="W_in_1" departPos="52.87" departSpeed="0.43" departDelay="0.62" arrival="42.00" arrivalLane="E_out_1" arrivalPos="189.60" arrivalSpeed="15.07" duration="28.00" routeLength="347.13" waitingTime="0.00" waitingCount="0" stopTime="0.00" timeLoss="4.84" rerouteNo="0" devices="vehroute_flow_13_phase1_W_straight.1 tripinfo_flow_13_phase1_W_straight.1" vType="car" speedFactor="1.12" vaporized=""/>
    <tripinfo id="flow_15_phase1_W_right.0" depart="0.00" departLane="W_in_1" departPos="153.90" departSpeed="6.73" departDelay="0.00" arrival="43.00" arrivalLane="S_out_0" arrivalPos="189.60" arrivalSpeed="11.04" duration="43.00" routeLength="234.33" waitingTime="13.00" waitingCount="1" stopTime="0.00" timeLoss="21.62" rerouteNo="0" devices="vehroute_flow_15_phase1_W_right.0 tripinfo_flow_15_phase1_W_right.0" vType="moto" speedFactor="0.85" vaporized=""/>
    <tripinfo id="flow_7_phase1_S_right.0" depart="0.00" departLane="W_in_0" departPos="8.76" departSpeed="8.07" departDelay="0.00" arrival="44.00" arrivalLane="W_out_0" arrivalPos="189.60" arrivalSpeed="11.59" duration="44.00" routeLength="375.11" waitingTime="0.00" waitingCount="0" stopTime="0.00" timeLoss="10.65" rerouteNo="0" devices="vehroute_flow_7_phase1_S_right.0 tripinfo_flow_7_phase1_S_right.0" vType="container" speedFactor="0.85" vaporized=""/>
    <tripinfo id="flow_5_phase1_S_straight.1" depart="14.00" departLane="S_in_1" departPos="121.65" departSpeed="2.93" departDelay="0.77" arrival="48.00" arrivalLane="N_out_1" arrivalPos="189.60" arrivalSpeed="14.96" duration="34.00" routeLength="278.35" waitingTime="7.00" waitingCount="1" stopTime="0.00" timeLoss="16.21" rerouteNo="0" devices="vehroute_flow_5_phase1_S_straight.1 tripinfo_flow_5_phase1_S_straight.1" vType="moto" speedFactor="1.19" vaporized=""/>
    <tripinfo id="flow_13_phase1_W_straight.0" depart="0.00" departLane="W_in_0" departPos="77.99" departSpeed="3.79" departDelay="0.00" arrival="50.00" arrivalLane="E_out_0" arrivalPos="189.60" arrivalSpeed="11.12" duration="50.00" routeLength="322.01" waitingTime="3.00" waitingCount="1" stopTime="0.00" timeLoss="21.02" rerouteNo="0" devices="vehroute_flow_13_phase1_W_straight.0 tripinfo_flow_13_phase1_W_straight.0" vType="container" speedFactor="0.82" vaporized=""/>
    <tripinfo id="flow_1_phase1_N_straight.1" depart="14.00" departLane="N_in_1" departPos="31.93" departSpeed="7.04" departDelay="0.48" arrival="51.00" arrivalLane="S_out_0" arrivalPos="189.60" arrivalSpeed="12.03" duration="37.00" routeLength="368.07" waitingTime="0.00" waitingCount="0" stopTime="0.00" timeLoss="6.06" rerouteNo="0" devices="vehroute_flow_1_phase1_N_straight.1 tripinfo_flow_1_phase1_N_straight.1" vType="moto" speedFactor="0.87" vaporized=""/>
    <tripinfo id="flow_5_phase1_S_straight.2" depart="27.00" departLane="S_in_1" departPos="59.51" departSpeed="13.27" departDelay="0.54" arrival="54.00" arrivalLane="N_out_1" arrivalPos="189.60" arrivalSpeed="12.08" duration="27.00" routeLength="340.49" waitingTime="0.00" waitingCount="0" stopTime="0.00" timeLoss="1.29" rerouteNo="0" devices="vehroute_flow_5_phase1_S_straight.2 tripinfo_flow_5_phase1_S_straight.2" vType="moto" speedFactor="0.96" vaporized=""/>
    <tripinfo id="flow_1_phase1_N_straight.0" depart="0.00" departLane="N_in_0" departPos="8.62" departSpeed="8.51" departDelay="0.00" arrival="55.00" arrivalLane="S_out_0" arrivalPos="189.60" arrivalSpeed="11.90" duration="55.00" routeLength="391.38" waitingTime="10.00" waitingCount="1" stopTime="0.00" timeLoss="22.03" rerouteNo="0" devices="vehroute_flow_1_phase1_N_straight.0 tripinfo_flow_1_phase1_N_straight.0" vType="bus" speedFactor="0.86" vaporized=""/>
    <tripinfo id="flow_9_phase1_E_straight.1" depart="13.00" departLane="W_in_1" departPos="58.36" departSpeed="11.07" departDelay="0.12" arrival="59.00" arrivalLane="S_out_0" arrivalPos="189.60" arrivalSpeed="15.50" duration="46.00" routeLength="329.87" waitingTime="11.00" waitingCount="1" stopTime="0.00" timeLoss="24.87" rerouteNo="0" devices="vehroute_flow_9_phase1_E_straight.1 tripinfo_flow_9_phase1_E_straight.1" vType="moto" speedFactor="1.16" vaporized=""/>
    <tripinfo id="flow_11_phase1_E_right.1" depart="33.00" departLane="E_in_1" departPos="97.23" departSpeed="5.62" departDelay="0.51" arrival="61.00" arrivalLane="N_out_0" arrivalPos="189.60" arrivalSpeed="14.02" duration="28.00" routeLength="291.00" waitingTime="0.00" waitingCount="0" stopTime="0.00" timeLoss="6.85" rerouteNo="0" devices="vehroute_flow_11_phase1_E_right.1 tripinfo_flow_11_phase1_E_right.1" vType="moto" speedFactor="1.04" vaporized=""/>
    <tripinfo id="flow_3_phase1_N_right.1" depart="35.00" departLane="N_in_0" departPos="134.76" departSpeed="5.20" departDelay="0.82" arrival="61.00" arrivalLane="W_out_0" arrivalPos="189.60" arrivalSpeed="11.96" duration="26.00" routeLength="253.47" waitingTime="0.00" waitingCount="0" stopTime="0.00" timeLoss="4.17" rerouteNo="0" devices="vehroute_flow_3_phase1_N_right.1 tripinfo_flow_3_phase1_N_right.1" vType="moto" speedFactor="0.88" vaporized=""/>
    <tripinfo id="flow_15_phase1_W_right.1" depart="33.00" departLane="W_in_1" departPos="185.21" departSpeed="4.39" departDelay="0.16" arrival="62.00" arrivalLane="S_out_0" arrivalPos="189.60" arrivalSpeed="13.95" duration="29.00" routeLength="203.02" waitingTime="9.00" waitingCount="1" stopTime="0.00" timeLoss="14.90" rerouteNo="0" devices="vehroute_flow_15_phase1_W_right.1 tripinfo_flow_15_phase1_W_right.1" vType="moto" speedFactor="1.08" vaporized=""/>
    <tripinfo id="flow_9_phase1_E_straight.2" depart="26.00" departLane="W_in_1" departPos="12.70" departSpeed="12.82" departDelay="0.25" arrival="65.00" arrivalLane="S_out_0" arrivalPos="189.60" arrivalSpeed="13.78" duration="39.00" routeLength="375.53" waitingTime="3.00" waitingCount="1" stopTime="0.00" timeLoss="10.97" rerouteNo="0" devices="vehroute_flow_9_phase1_E_straight.2 tripinfo_flow_9_phase1_E_straight.2" vType="moto" speedFactor="0.99" vaporized=""/>
    <tripinfo id="flow_13_phase1_W_straight.3" depart="41.00" departLane="W_in_0" departPos="135.24" departSpeed="1.81" departDelay="0.85" arrival="67.00" arrivalLane="E_out_0" arrivalPos="189.60" arrivalSpeed="13.36" duration="26.00" routeLength="264.76" waitingTime="0.00" waitingCount="0" stopTime="0.00" timeLoss="7.68" rerouteNo="0" devices="vehroute_flow_13_phase1_W_straight.3 tripinfo_flow_13_phase1_W_straight.3" vType="car" speedFactor="1.05" vaporized=""/>
    <tripinfo id="flow_13_phase1_W_straight.2" depart="27.00" departLane="W_in_1" departPos="107.53" departSpeed="1.15" departDelay="0.23" arrival="68.00" arrivalLane="E_out_1" arrivalPos="189.60" arrivalSpeed="13.10" duration="41.00" routeLength="292.47" waitingTime="3.00" waitingCount="1" stopTime="0.00" timeLoss="18.80" rerouteNo="0" devices="vehroute_flow_13_phase1_W_straight.2 tripinfo_flow_13_phase1_W_straight.2" vType="bus" speedFactor="0.97" vaporized=""/>
    <tripinfo id="flow_2_phase1_N_left.1" depart="33.00" departLane="N_in_1" departPos="66.71" departSpeed="11.27" departDelay="0.32" arrival="74.00" arrivalLane="W_out_0" arrivalPos="189.60" arrivalSpeed="14.31" duration="41.00" routeLength="321.52" waitingTime="12.00" waitingCount="1" stopTime="0.00" timeLoss="19.25" rerouteNo="0" devices="vehroute_flow_2_phase1_N_left.1 tripinfo_flow_2_phase1_N_left.1" vType="moto" speedFactor="1.12" vaporized=""/>
    <tripinfo id="flow_9_phase1_E_straight.3" depart="39.00" departLane="W_in_1" departPos="77.94" departSpeed="3.51" departDelay="0.37" arrival="74.00" arrivalLane="S_out_0" arrivalPos="189.60" arrivalSpeed="11.53" duration="35.00" routeLength="310.29" waitingTime="0.00" waitingCount="0" stopTime="0.00" timeLoss="7.74" rerouteNo="0" devices="vehroute_flow_9_phase1_E_straight.3 tripinfo_flow_9_phase1_E_straight.3" vType="bus" speedFactor="0.85" vaporized=""/>
    <tripinfo id="flow_5_phase1_S_straight.3" depart="40.00" departLane="S_in_0" departPos="19.25" departSpeed="10.47" departDelay="0.31" arrival="74.00" arrivalLane="N_out_0" arrivalPos="189.60" arrivalSpeed="14.02" duration="34.00" routeLength="380.75" waitingTime="0.00" waitingCount="0" stopTime="0.00" timeLoss="8.46" rerouteNo="0" devices="vehroute_flow_5_phase1_S_straight.3 tripinfo_flow_5_phase1_S_straight.3" vType="moto" speedFactor="1.08" vaporized=""/>
    <tripinfo id="flow_1_phase1_N_straight.2" depart="28.00" departLane="N_in_0" departPos="8.88" departSpeed="2.33" departDelay="0.97" arrival="77.00" arrivalLane="S_out_0" arrivalPos="189.60" arrivalSpeed="12.33" duration="49.00" routeLength="391.12" waitingTime="7.00" waitingCount="1" stopTime="0.00" timeLoss="17.92" rerouteNo="0" devices="vehroute_flow_1_phase1_N_straight.2 tripinfo_flow_1_phase1_N_straight.2" vType="moto" speedFactor="0.93" vaporized=""/>
    <tripinfo id="flow_10_phase1_E_left.1" depart="34.00" departLane="E_in_1" departPos="175.36" departSpeed="6.66" departDelay="0.50" arrival="78.00" arrivalLane="S_out_1" arrivalPos="189.60" arrivalSpeed="9.92" duration="44.00" routeLength="223.19" waitingTime="10.00" waitingCount="2" stopTime="0.00" timeLoss="21.89" rerouteNo="0" devices="vehroute_flow_10_phase1_E_left.1 tripinfo_flow_10_phase1_E_left.1" vType="truck" speedFactor="0.77" vaporized=""/>
    <tripinfo id="flow_1_phase1_N_straight.3" depart="41.00" departLane="N_in_0" departPos="53.32" departSpeed="10.59" departDelay="0.45" arrival="78.00" arrivalLane="S_out_0" arrivalPos="189.60" arrivalSpeed="13.96" duration="37.00" routeLength="346.68" waitingTime="5.00" waitingCount="1" stopTime="0.00" timeLoss="14.89" rerouteNo="0" devices="vehroute_flow_1_phase1_N_straight.3 tripinfo_flow_1_phase1_N_straight.3" vType="moto" speedFactor="1.20" vaporized=""/>
    <tripinfo id="flow_1_phase1_N_straight.4" depart="55.00" departLane="N_in_0" departPos="125.76" departSpeed="4.40" departDelay="0.94" arrival="81.00" arrivalLane="S_out_0" arrivalPos="189.60" arrivalSpeed="12.16" duration="26.00" routeLength="274.24" waitingTime="0.00" waitingCount="0" stopTime="0.00" timeLoss="3.81" rerouteNo="0" devices="vehroute_flow_1_phase1_N_straight.4 tripinfo_flow_1_phase1_N_straight.4" vType="truck" speedFactor="0.92" vaporized=""/>
    <tripinfo id="flow_6_phase1_S_left.1" depart="34.00" departLane="S_in_0" departPos="19.85" departSpeed="4.40" departDelay="0.55" arrival="83.00" arrivalLane="W_out_1" arrivalPos="189.60" arrivalSpeed="13.48" duration="49.00" routeLength="378.70" waitingTime="13.00" waitingCount="2" stopTime="0.00" timeLoss="21.73" rerouteNo="0" devices="vehroute_flow_6_phase1_S_left.1 tripinfo_flow_6_phase1_S_left.1" vType="moto" speedFactor="1.05" vaporized=""/>
    <tripinfo id="flow_11_phase1_E_right.2" depart="65.00" departLane="E_in_1" departPos="162.40" departSpeed="1.63" departDelay="0.02" arrival="86.00" arrivalLane="N_out_0" arrivalPos="189.60" arrivalSpeed="15.38" duration="21.00" routeLength="225.83" waitingTime="0.00" waitingCount="0" stopTime="0.00" timeLoss="4.94" rerouteNo="0" devices="vehroute_flow_11_phase1_E_right.2 tripinfo_flow_11_phase1_E_right.2" vType="moto" speedFactor="1.14" vaporized=""/>
    <tripinfo id="flow_12_phase1_E_uturn.1" depart="66.00" departLane="E_in_0" departPos="171.28" departSpeed="6.39" departDelay="0.19" arrival="89.00" arrivalLane="E_out_1" arrivalPos="189.60" arrivalSpeed="12.27" duration="23.00" routeLength="212.59" waitingTime="0.00" waitingCount="0" stopTime="0.00" timeLoss="5.08" rerouteNo="0" devices="vehroute_flow_12_phase1_E_uturn.1 tripinfo_flow_12_phase1_E_uturn.1" vType="moto" speedFactor="0.95" vaporized=""/>
    <tripinfo id="flow_9_phase1_E_straight.4" depart="52.00" departLane="W_in_0" departPos="70.46" departSpeed="11.68" departDelay="0.49" arrival="92.00" arrivalLane="S_out_0" arrivalPos="189.60" arrivalSpeed="12.58" duration="40.00" routeLength="317.77" waitingTime="4.00" waitingCount="1" stopTime="0.00" timeLoss="14.45" rerouteNo="0" devices="vehroute_flow_9_phase1_E_straight.4 tripinfo_flow_9_phase1_E_straight.4" vType="bus" speedFactor="0.95" vaporized=""/>
    <tripinfo id="flow_14_phase1_W_left.1" depart="35.00" departLane="W_in_1" departPos="108.76" departSpeed="10.72" departDelay="0.53" arrival="94.00" arrivalLane="W_out_0" arrivalPos="189.60" arrivalSpeed="12.39" duration="59.00" routeLength="275.11" waitingTime="17.00" waitingCount="2" stopTime="0.00" timeLoss="35.90" rerouteNo="0" devices="vehroute_flow_14_phase1_W_left.1 tripinfo_flow_14_phase1_W_left.1" vType="container" speedFactor="0.91" vaporized=""/>
    <tripinfo id="flow_13_phase1_W_straight.4" depart="54.00" departLane="W_in_1" departPos="29.12" departSpeed="11.82" departDelay="0.46" arrival="96.00" arrivalLane="E_out_0" arrivalPos="189.60" arrivalSpeed="11.83" duration="42.00" routeLength="370.88" waitingTime="0.00" waitingCount="0" stopTime="0.00" timeLoss="10.74" rerouteNo="0" devices="vehroute_flow_13_phase1_W_straight.4 tripinfo_flow_13_phase1_W_straight.4" vType="bus" speedFactor="0.87" vaporized=""/>
    <tripinfo id="flow_9_phase1_E_straight.5" depart="65.00" departLane="W_in_1" departPos="112.37" departSpeed="9.43" departDelay="0.62" arrival="96.00" arrivalLane="S_out_0" arrivalPos="189.60" arrivalSpeed="12.79" duration="31.00" routeLength="275.86" waitingTime="0.00" waitingCount="0" stopTime="0.00" timeLoss="10.00" rerouteNo="0" devices="vehroute_flow_9_phase1_E_straight.5 tripinfo_flow_9_phase1_E_straight.5" vType="moto" speedFactor="1.00" vaporized=""/>
    <tripinfo id="flow_10_phase1_E_left.2" depart="67.00" departLane="E_in_1" departPos="74.60" departSpeed="12.15" departDelay="0.00" arrival="97.00" arrivalLane="S_out_1" arrivalPos="189.60" arrivalSpeed="13.95" duration="30.00" routeLength="323.95" waitingTime="0.00" waitingCount="0" stopTime="0.00" timeLoss="7.20" rerouteNo="0" devices="vehroute_flow_10_phase1_E_left.2 tripinfo_flow_10_phase1_E_left.2" vType="moto" speedFactor="1.07" vaporized=""/>
    <tripinfo id="flow_2_phase1_N_left.2" depart="66.00" departLane="N_in_0" departPos="179.13" departSpeed="12.54" departDelay="0.64" arrival="99.00" arrivalLane="W_out_0" arrivalPos="189.60" arrivalSpeed="15.20" duration="33.00" routeLength="209.10" waitingTime="14.00" waitingCount="1" stopTime="0.00" timeLoss="17.86" rerouteNo="0" devices="vehroute_flow_2_phase1_N_left.2 tripinfo_flow_2_phase1_N_left.2" vType="emergency" speedFactor="1.10" vaporized=""/>
    <tripinfo id="flow_3_phase1_N_right.2" depart="69.00" departLane="N_in_0" departPos="69.49" departSpeed="6.82" departDelay="0.63" arrival="101.00" arrivalLane="W_out_0" arrivalPos="189.60" arrivalSpeed="14.52" duration="32.00" routeLength="318.74" waitingTime="3.00" waitingCount="1" stopTime="0.00" timeLoss="10.16" rerouteNo="0" devices="vehroute_flow_3_phase1_N_right.2 tripinfo_flow_3_phase1_N_right.2" vType="moto" speedFactor="1.10" vaporized=""/>
    <tripinfo id="flow_7_phase1_S_right.1" depart="33.00" departLane="W_in_1" departPos="80.24" departSpeed="2.32" departDelay="0.51" arrival="102.00" arrivalLane="W_out_0" arrivalPos="189.60" arrivalSpeed="10.82" duration="69.00" routeLength="303.63" waitingTime="14.00" waitingCount="1" stopTime="0.00" timeLoss="40.45" rerouteNo="0" devices="vehroute_flow_7_phase1_S_right.1 tripinfo_flow_7_phase1_S_right.1" vType="container" speedFactor="0.78" vaporized=""/>
    <tripinfo id="flow_8_phase1_S_uturn.1" depart="66.00" departLane="S_in_0" departPos="185.99" departSpeed="0.19" departDelay="0.07" arrival="104.00" arrivalLane="S_out_1" arrivalPos="189.60" arrivalSpeed="12.69" duration="38.00" routeLength="197.88" waitingTime="12.00" waitingCount="1" stopTime="0.00" timeLoss="21.94" rerouteNo="0" devices="vehroute_flow_8_phase1_S_uturn.1 tripinfo_flow_8_phase1_S_uturn.1" vType="truck" speedFactor="0.94" vaporized=""/>
    <tripinfo id="flow_5_phase1_S_straight.5" depart="67.00" departLane="S_in_1" departPos="92.22" departSpeed="0.17" departDelay="0.85" arrival="105.00" arrivalLane="N_out_1" arrivalPos="189.60" arrivalSpeed="14.07" duration="38.00" routeLength="307.78" waitingTime="4.00" waitingCount="1" stopTime="0.00" timeLoss="15.64" rerouteNo="0" devices="vehroute_flow_5_phase1_S_straight.5 tripinfo_flow_5_phase1_S_straight.5" vType="moto" speedFactor="1.03" vaporized=""/>
    <tripinfo id="flow_5_phase1_S_straight.4" depart="53.00" departLane="S_in_1" departPos="74.07" departSpeed="0.57" departDelay="0.08" arrival="108.00" arrivalLane="N_out_0" arrivalPos="189.60" arrivalSpeed="12.95" duration="55.00" routeLength="325.93" waitingTime="9.00" waitingCount="1" stopTime="0.00" timeLoss="30.26" rerouteNo="0" devices="vehroute_flow_5_phase1_S_straight.4 tripinfo_flow_5_phase1_S_straight.4" vType="container" speedFactor="0.97" vaporized=""/>
    <tripinfo id="flow_1_phase1_N_straight.5" depart="68.00" departLane="N_in_1" departPos="61.32" departSpeed="1.92" departDelay="0.42" arrival="110.00" arrivalLane="S_out_0" arrivalPos="189.60" arrivalSpeed="12.14" duration="42.00" routeLength="338.68" waitingTime="1.00" waitingCount="1" stopTime="0.00" timeLoss="14.61" rerouteNo="0" devices="vehroute_flow_1_phase1_N_straight.5 tripinfo_flow_1_phase1_N_straight.5" vType="moto" speedFactor="0.90" vaporized=""/>
    <tripinfo id="flow_4_phase1_N_uturn.1" depart="67.00" departLane="N_in_1" departPos="124.88" departSpeed="0.01" departDelay="0.96" arrival="112.00" arrivalLane="E_out_1" arrivalPos="189.60" arrivalSpeed="12.02" duration="45.00" routeLength="273.67" waitingTime="9.00" waitingCount="2" stopTime="0.00" timeLoss="22.59" rerouteNo="0" devices="vehroute_flow_4_phase1_N_uturn.1 tripinfo_flow_4_phase1_N_uturn.1" vType="moto" speedFactor="0.94" vaporized=""/>
    <tripinfo id="flow_16_phase1_W_uturn.1" depart="67.00" departLane="N_in_0" departPos="63.10" departSpeed="12.18" departDelay="0.80" arrival="113.00" arrivalLane="E_out_1" arrivalPos="189.60" arrivalSpeed="14.09" duration="46.00" routeLength="335.45" waitingTime="8.00" waitingCount="2" stopTime="0.00" timeLoss="21.67" rerouteNo="0" devices="vehroute_flow_16_phase1_W_uturn.1 tripinfo_flow_16_phase1_W_uturn.1" vType="moto" speedFactor="1.04" vaporized=""/>
    <tripinfo id="flow_15_phase1_W_right.2" depart="66.00" departLane="W_in_0" departPos="89.17" departSpeed="4.27" departDelay="0.32" arrival="115.00" arrivalLane="S_out_0" arrivalPos="189.60" arrivalSpeed="11.40" duration="49.00" routeLength="299.06" waitingTime="12.00" waitingCount="1" stopTime="0.00" timeLoss="24.08" rerouteNo="0" devices="vehroute_flow_15_phase1_W_right.2 tripinfo_flow_15_phase1_W_right.2" vType="moto" speedFactor="0.89" vaporized=""/>
    <tripinfo id="flow_13_phase1_W_straight.5" depart="67.00" departLane="W_in_1" departPos="148.65" departSpeed="5.97" departDelay="0.08" arrival="115.00" arrivalLane="E_out_1" arrivalPos="189.60" arrivalSpeed="14.75" duration="48.00" routeLength="251.35" waitingTime="10.00" waitingCount="1" stopTime="0.00" timeLoss="32.15" rerouteNo="0" devices="vehroute_flow_13_phase1_W_straight.5 tripinfo_flow_13_phase1_W_straight.5" vType="moto" speedFactor="1.14" vaporized=""/>
    <tripinfo id="flow_6_phase1_S_left.2" depart="67.00" departLane="S_in_1" departPos="21.68" departSpeed="5.11" departDelay="0.10" arrival="117.00" arrivalLane="W_out_1" arrivalPos="189.60" arrivalSpeed="11.90" duration="50.00" routeLength="376.87" waitingTime="1.00" waitingCount="1" stopTime="0.00" timeLoss="17.96" rerouteNo="0" devices="vehroute_flow_6_phase1_S_left.2 tripinfo_flow_6_phase1_S_left.2" vType="truck" speedFactor="0.89" vaporized=""/>
    <tripinfo id="flow_9_phase1_E_straight.6" depart="78.00" departLane="W_in_0" departPos="18.52" departSpeed="1.63" departDelay="0.74" arrival="117.00" arrivalLane="S_out_0" arrivalPos="189.60" arrivalSpeed="12.91" duration="39.00" routeLength="369.71" waitingTime="1.00" waitingCount="1" stopTime="0.00" timeLoss="11.53" rerouteNo="0" devices="vehroute_flow_9_phase1_E_straight.6 tripinfo_flow_9_phase1_E_straight.6" vType="moto" speedFactor="1.02" vaporized=""/>
    <tripinfo id="flow_13_phase1_W_straight.6" depart="81.00" departLane="W_in_1" departPos="47.50" departSpeed="4.35" departDelay="0.70" arrival="117.00" arrivalLane="E_out_0" arrivalPos="189.60" arrivalSpeed="12.86" duration="36.00" routeLength="352.50" waitingTime="1.00" waitingCount="1" stopTime="0.00" timeLoss="9.89" rerouteNo="0" devices="vehroute_flow_13_phase1_W_straight.6 tripinfo_flow_13_phase1_W_straight.6" vType="car" speedFactor="0.98" vaporized=""/>
    <tripinfo id="flow_7_phase1_S_right.2" depart="65.00" departLane="W_in_0" departPos="52.57" departSpeed="8.42" departDelay="0.01" arrival="118.00" arrivalLane="W_out_1" arrivalPos="189.60" arrivalSpeed="14.13" duration="53.00" routeLength="331.30" waitingTime="9.00" waitingCount="1" stopTime="0.00" timeLoss="29.13" rerouteNo="0" devices="vehroute_flow_7_phase1_S_right.2 tripinfo_flow_7_phase1_S_right.2" vType="moto" speedFactor="1.03" vaporized=""/>
    <tripinfo id="flow_9_phase1_E_straight.7" depart="91.00" departLane="W_in_1" departPos="41.83" departSpeed="13.19" departDelay="0.86" arrival="120.00" arrivalLane="S_out_0" arrivalPos="189.60" arrivalSpeed="13.31" duration="29.00" routeLength="346.40" waitingTime="0.00" waitingCount="0" stopTime="0.00" timeLoss="3.15" rerouteNo="0" devices="vehroute_flow_9_phase1_E_straight.7 tripinfo_flow_9_phase1_E_straight.7" vType="moto" speedFactor="1.01" vaporized=""/>
    <tripinfo id="flow_14_phase1_W_left.2" depart="69.00" departLane="W_in_1" departPos="24.55" departSpeed="1.97" departDelay="0.06" arrival="123.00" arrivalLane="W_out_1" arrivalPos="189.60" arrivalSpeed="11.45" duration="54.00" routeLength="359.32" waitingTime="7.00" waitingCount="1" stopTime="0.00" timeLoss="23.19" rerouteNo="0" devices="vehroute_flow_14_phase1_W_left.2 tripinfo_flow_14_phase1_W_left.2" vType="car" speedFactor="0.90" vaporized=""/>
    <tripinfo id="flow_5_phase1_S_straight.6" depart="80.00" departLane="S_in_1" departPos="37.04" departSpeed="3.48" departDelay="0.62" arrival="127.00" arrivalLane="N_out_0" arrivalPos="189.60" arrivalSpeed="15.03" duration="47.00" routeLength="362.96" waitingTime="13.00" waitingCount="1" stopTime="0.00" timeLoss="22.34" rerouteNo="0" devices="vehroute_flow_5_phase1_S_straight.6 tripinfo_flow_5_phase1_S_straight.6" vType="moto" speedFactor="1.10" vaporized=""/>
    <tripinfo id="flow_1_phase1_N_straight.7" depart="95.00" departLane="N_in_1" departPos="126.29" departSpeed="10.95" departDelay="0.39" arrival="127.00" arrivalLane="S_out_1" arrivalPos="189.60" arrivalSpeed="14.27" duration="32.00" routeLength="273.71" waitingTime="6.00" waitingCount="1" stopTime="0.00" timeLoss="12.99" rerouteNo="0" devices="vehroute_flow_1_phase1_N_straight.7 tripinfo_flow_1_phase1_N_straight.7" vType="moto" speedFactor="1.06" vaporized=""/>
    <tripinfo id="flow_1_phase1_N_straight.6" depart="82.00" departLane="N_in_0" departPos="36.12" departSpeed="6.34" departDelay="0.90" arrival="128.00" arrivalLane="S_out_0" arrivalPos="189.60" arrivalSpeed="12.58" duration="46.00" routeLength="363.88" waitingTime="10.00" waitingCount="1" stopTime="0.00" timeLoss="19.10" rerouteNo="0" devices="vehroute_flow_1_phase1_N_straight.6 tripinfo_flow_1_phase1_N_straight.6" vType="car" speedFactor="0.98" vaporized=""/>