<?xml version="1.0" encoding="UTF-8"?>

<!-- generated on 2025-12-08 21:43:16 by Eclipse SUMO sumo Version 1.18.0
<configuration xmlns:xsi="http://www.w3.org/2001/XMLSchema-instance" xsi:noNamespaceSchemaLocation="http://sumo.dlr.de/xsd/sumoConfiguration.xsd">

    <input>
        <net-file value="nets/60p2k/net.net.xml"/>
        <route-files value="nets/60p2k/route_temp_281_124147880884016_33742306.rou.xml"/>
    </input>

    <output>
        <summary-output value="result_ddqn_1.9_0.4/summary_ep_10.xml"/>
        <tripinfo-output value="result_ddqn_1.9_0.4/tripinfo_ep_10.xml"/>
        <vehroute-output value="result_ddqn_1.9_0.4/vehroute_ep_10.xml"/>
    </output>

    <time>
        <begin value="0"/>
    </time>

    <report>
        <verbose value="true"/>
        <no-warnings value="true"/>
        <no-step-log value="true"/>
    </report>

    <traci_server>
        <remote-port value="37797"/>
    </traci_server>

    <gui_only>
        <gui-settings-file value="nets/60p2k/gui-settings.xml"/>
        <quit-on-end value="true"/>
    </gui_only>

</configuration>
-->

<tripinfos xmlns:xsi="http://www.w3.org/2001/XMLSchema-instance" xsi:noNamespaceSchemaLocation="http://sumo.dlr.de/xsd/tripinfo_file.xsd">
    <tripinfo id="flow_3_phase1_N_right.0" depart="0.00" departLane="N_in_0" departPos="103.38" departSpeed="3.75" departDelay="0.00" arrival="24.00" arrivalLane="W_out_0" arrivalPos="189.60" arrivalSpeed="14.93" duration="24.00" routeLength="284.85" waitingTime="0.00" waitingCount="0" stopTime="0.00" timeLoss="4.55" rerouteNo="0" devices="vehroute_flow_3_phase1_N_right.0 tripinfo_flow_3_phase1_N_right.0" vType="car" speedFactor="1.09" vaporized=""/>
    <tripinfo id="flow_8_phase1_S_uturn.0" depart="0.00" departLane="S_in_0" departPos="120.11" departSpeed="4.48" departDelay="0.00" arrival="24.00" arrivalLane="S_out_1" arrivalPos="189.60" arrivalSpeed="13.35" duration="24.00" routeLength="263.76" waitingTime="0.00" waitingCount="0" stopTime="0.00" timeLoss="4.99" rerouteNo="0" devices="vehroute_flow_8_phase1_S_uturn.0 tripinfo_flow_8_phase1_S_uturn.0" vType="moto" speedFactor="1.05" vaporized=""/>
    <tripinfo id="flow_5_phase1_S_straight.0" depart="0.00" departLane="S_in_1" departPos="107.37" departSpeed="7.21" departDelay="0.00" arrival="25.00" arrivalLane="N_out_1" arrivalPos="189.60" arrivalSpeed="15.66" duration="25.00" routeLength="292.63" waitingTime="0.00" waitingCount="0" stopTime="0.00" timeLoss="5.95" rerouteNo="0" devices="vehroute_flow_5_phase1_S_straight.0 tripinfo_flow_5_phase1_S_straight.0" vType="moto" speedFactor="1.15" vaporized=""/>
    <tripinfo id="flow_4_phase1_N_uturn.0" depart="0.00" departLane="N_in_1" departPos="127.60" departSpeed="0.08" departDelay="0.00" arrival="31.00" arrivalLane="N_out_1" arrivalPos="189.60" arrivalSpeed="12.10" duration="31.00" routeLength="256.27" waitingTime="1.00" waitingCount="1" stopTime="0.00" timeLoss="9.91" rerouteNo="0" devices="vehroute_flow_4_phase1_N_uturn.0 tripinfo_flow_4_phase1_N_uturn.0" vType="car" speedFactor="0.92" vaporized=""/>
    <tripinfo id="flow_12_phase1_E_uturn.0" depart="0.00" departLane="E_in_0" departPos="5.65" departSpeed="13.76" departDelay="0.00" arrival="35.00" arrivalLane="E_out_1" arrivalPos="189.60" arrivalSpeed="14.20" duration="35.00" routeLength="378.22" waitingTime="0.00" waitingCount="0" stopTime="0.00" timeLoss="7.63" rerouteNo="0" devices="vehroute_flow_12_phase1_E_uturn.0 tripinfo_flow_12_phase1_E_uturn.0" vType="moto" speedFactor="1.03" vaporized=""/>
    <tripinfo id="flow_14_phase1_W_left.0" depart="0.00" departLane="W_in_1" departPos="182.88" departSpeed="5.61" departDelay="0.00" arrival="36.00" arrivalLane="N_out_1" arrivalPos="189.60" arrivalSpeed="13.91" duration="36.00" routeLength="215.67" waitingTime="14.00" waitingCount="1" stopTime="0.00" timeLoss="19.63" rerouteNo="0" devices="vehroute_flow_14_phase1_W_left.0 tripinfo_flow_14_phase1_W_left.0" vType="moto" speedFactor="1.01" vaporized=""/>
    <tripinfo id="flow_6_phase1_S_left.0" depart="0.00" departLane="E_in_1" departPos="166.01" departSpeed="0.74" departDelay="0.00" arrival="37.00" arrivalLane="N_out_0" arrivalPos="189.60" arrivalSpeed="10.96" duration="37.00" routeLength="222.22" waitingTime="10.00" waitingCount="1" stopTime="0.00" timeLoss="18.05" rerouteNo="0" devices="vehroute_flow_6_phase1_S_left.0 tripinfo_flow_6_phase1_S_left.0" vType="moto" speedFactor="0.88" vaporized=""/>
    <tripinfo id="flow_16_phase1_W_uturn.0" depart="0.00" departLane="W_in_0" departPos="126.68" departSpeed="11.71" departDelay="0.00" arrival="37.00" arrivalLane="W_out_1" arrivalPos="189.60" arrivalSpeed="14.05" duration="37.00" routeLength="257.19" waitingTime="10.00" waitingCount="1" stopTime="0.00" timeLoss="18.14" rerouteNo="0" devices="vehroute_flow_16_phase1_W_uturn.0 tripinfo_flow_16_phase1_W_uturn.0" vType="moto" speedFactor="1.04" vaporized=""/>
    <tripinfo id="flow_11_phase1_E_right.0" depart="0.00" departLane="W_in_1" departPos="144.95" departSpeed="4.02" departDelay="0.00" arrival="45.00" arrivalLane="W_out_1" arrivalPos="189.60" arrivalSpeed="12.60" duration="45.00" routeLength="238.92" waitingTime="8.00" waitingCount="1" stopTime="0.00" timeLoss="24.80" rerouteNo="0" devices="vehroute_flow_11_phase1_E_right.0 tripinfo_flow_11_phase1_E_right.0" vType="bus" speedFactor="0.96" vaporized=""/>
    <tripinfo id="flow_5_phase1_S_straight.1" depart="14.00" departLane="S_in_1" departPos="121.65" departSpeed="2.93" departDelay="0.77" arrival="48.00" arrivalLane="N_out_1" arrivalPos="189.60" arrivalSpeed="15.44" duration="34.00" routeLength="278.35" waitingTime="6.00" waitingCount="1" stopTime="0.00" timeLoss="15.79" rerouteNo="0" devices="vehroute_flow_5_phase1_S_straight.1 tripinfo_flow_5_phase1_S_straight.1" vType="moto" speedFactor="1.19" vaporized=""/>
    <tripinfo id="flow_5_phase1_S_straight.2" depart="27.00" departLane="S_in_1" departPos="59.51" departSpeed="13.27" departDelay="0.54" arrival="54.00" arrivalLane="N_out_1" arrivalPos="189.60" arrivalSpeed="13.11" duration="27.00" routeLength="340.49" waitingTime="0.00" waitingCount="0" stopTime="0.00" timeLoss="1.03" rerouteNo="0" devices="vehroute_flow_5_phase1_S_straight.2 tripinfo_flow_5_phase1_S_straight.2" vType="moto" speedFactor="0.96" vaporized=""/>
    <tripinfo id="flow_1_phase1_N_straight.0" depart="0.00" departLane="N_in_0" departPos="8.62" departSpeed="8.51" departDelay="0.00" arrival="56.00" arrivalLane="S_out_0" arrivalPos="189.60" arrivalSpeed="11.35" duration="56.00" routeLength="391.38" waitingTime="11.00" waitingCount="1" stopTime="0.00" timeLoss="22.99" rerouteNo="0" devices="vehroute_flow_1_phase1_N_straight.0 tripinfo_flow_1_phase1_N_straight.0" vType="bus" speedFactor="0.86" vaporized=""/>
    <tripinfo id="flow_2_phase1_N_left.0" depart="0.00" departLane="N_in_1" departPos="8.27" departSpeed="8.33" departDelay="0.00" arrival="57.00" arrivalLane="E_out_1" arrivalPos="189.60" arrivalSpeed="13.94" duration="57.00" routeLength="390.28" waitingTime="20.00" waitingCount="2" stopTime="0.00" timeLoss="28.73" rerouteNo="0" devices="vehroute_flow_2_phase1_N_left.0 tripinfo_flow_2_phase1_N_left.0" vType="moto" speedFactor="1.02" vaporized=""/>
    <tripinfo id="flow_7_phase1_S_right.0" depart="0.00" departLane="S_in_0" departPos="8.76" departSpeed="8.07" departDelay="0.00" arrival="57.00" arrivalLane="E_out_0" arrivalPos="189.60" arrivalSpeed="11.79" duration="57.00" routeLength="379.47" waitingTime="12.00" waitingCount="1" stopTime="0.00" timeLoss="23.44" rerouteNo="0" devices="vehroute_flow_7_phase1_S_right.0 tripinfo_flow_7_phase1_S_right.0" vType="container" speedFactor="0.85" vaporized=""/>
    <tripinfo id="flow_1_phase1_N_straight.1" depart="14.00" departLane="N_in_1" departPos="31.93" departSpeed="7.04" departDelay="0.48" arrival="62.00" arrivalLane="S_out_0" arrivalPos="189.60" arrivalSpeed="10.86" duration="48.00" routeLength="368.07" waitingTime="6.00" waitingCount="1" stopTime="0.00" timeLoss="17.03" rerouteNo="0" devices="vehroute_flow_1_phase1_N_straight.1 tripinfo_flow_1_phase1_N_straight.1" vType="moto" speedFactor="0.87" vaporized=""/>
    <tripinfo id="flow_15_phase1_W_right.0" depart="0.00" departLane="W_in_0" departPos="108.38" departSpeed="2.63" departDelay="0.00" arrival="64.00" arrivalLane="S_out_0" arrivalPos="189.60" arrivalSpeed="11.68" duration="64.00" routeLength="279.85" waitingTime="23.00" waitingCount="3" stopTime="0.00" timeLoss="38.94" rerouteNo="0" devices="vehroute_flow_15_phase1_W_right.0 tripinfo_flow_15_phase1_W_right.0" vType="moto" speedFactor="0.85" vaporized=""/>
    <tripinfo id="flow_6_phase1_S_left.1" depart="34.00" departLane="E_in_0" departPos="4.52" departSpeed="14.19" departDelay="0.55" arrival="65.00" arrivalLane="N_out_0" arrivalPos="189.60" arrivalSpeed="14.21" duration="31.00" routeLength="383.71" waitingTime="0.00" waitingCount="0" stopTime="0.00" timeLoss="3.12" rerouteNo="0" devices="vehroute_flow_6_phase1_S_left.1 tripinfo_flow_6_phase1_S_left.1" vType="moto" speedFactor="1.05" vaporized=""/>
    <tripinfo id="flow_10_phase1_E_left.0" depart="0.00" departLane="W_in_0" departPos="44.88" departSpeed="7.69" departDelay="0.00" arrival="66.00" arrivalLane="S_out_0" arrivalPos="189.60" arrivalSpeed="13.71" duration="66.00" routeLength="343.35" waitingTime="20.00" waitingCount="3" stopTime="0.00" timeLoss="40.62" rerouteNo="0" devices="vehroute_flow_10_phase1_E_left.0 tripinfo_flow_10_phase1_E_left.0" vType="truck" speedFactor="1.02" vaporized=""/>
    <tripinfo id="flow_13_phase1_W_straight.1" depart="14.00" departLane="W_in_1" departPos="52.87" departSpeed="0.43" departDelay="0.62" arrival="66.00" arrivalLane="E_out_1" arrivalPos="189.60" arrivalSpeed="15.04" duration="52.00" routeLength="347.13" waitingTime="14.00" waitingCount="1" stopTime="0.00" timeLoss="28.84" rerouteNo="0" devices="vehroute_flow_13_phase1_W_straight.1 tripinfo_flow_13_phase1_W_straight.1" vType="car" speedFactor="1.12" vaporized=""/>
    <tripinfo id="flow_9_phase1_E_straight.0" depart="0.00" departLane="W_in_0" departPos="168.29" departSpeed="9.83" departDelay="0.00" arrival="67.00" arrivalLane="N_out_1" arrivalPos="189.60" arrivalSpeed="12.01" duration="67.00" routeLength="230.26" waitingTime="36.00" waitingCount="3" stopTime="0.00" timeLoss="47.04" rerouteNo="0" devices="vehroute_flow_9_phase1_E_straight.0 tripinfo_flow_9_phase1_E_straight.0" vType="truck" speedFactor="0.90" vaporized=""/>
    <tripinfo id="flow_9_phase1_E_straight.1" depart="13.00" departLane="W_in_0" departPos="58.36" departSpeed="9.54" departDelay="0.12" arrival="68.00" arrivalLane="N_out_1" arrivalPos="189.60" arrivalSpeed="13.64" duration="55.00" routeLength="340.19" waitingTime="15.00" waitingCount="2" stopTime="0.00" timeLoss="32.95" rerouteNo="0" devices="vehroute_flow_9_phase1_E_straight.1 tripinfo_flow_9_phase1_E_straight.1" vType="moto" speedFactor="1.16" vaporized=""/>
    <tripinfo id="flow_10_phase1_E_left.1" depart="34.00" departLane="W_in_0" departPos="166.00" departSpeed="1.12" departDelay="0.50" arrival="73.00" arrivalLane="S_out_0" arrivalPos="189.60" arrivalSpeed="10.06" duration="39.00" routeLength="222.23" waitingTime="5.00" waitingCount="1" stopTime="0.00" timeLoss="16.74" rerouteNo="0" devices="vehroute_flow_10_phase1_E_left.1 tripinfo_flow_10_phase1_E_left.1" vType="truck" speedFactor="0.77" vaporized=""/>
    <tripinfo id="flow_5_phase1_S_straight.3" depart="40.00" departLane="S_in_0" departPos="132.62" departSpeed="5.13" departDelay="0.31" arrival="75.00" arrivalLane="N_out_1" arrivalPos="189.60" arrivalSpeed="14.91" duration="35.00" routeLength="267.38" waitingTime="9.00" waitingCount="1" stopTime="0.00" timeLoss="16.16" rerouteNo="0" devices="vehroute_flow_5_phase1_S_straight.3 tripinfo_flow_5_phase1_S_straight.3" vType="moto" speedFactor="1.08" vaporized=""/>
    <tripinfo id="flow_2_phase1_N_left.1" depart="33.00" departLane="N_in_1" departPos="66.71" departSpeed="11.27" departDelay="0.32" arrival="77.00" arrivalLane="E_out_1" arrivalPos="189.60" arrivalSpeed="15.07" duration="44.00" routeLength="331.84" waitingTime="13.00" waitingCount="2" stopTime="0.00" timeLoss="21.95" rerouteNo="0" devices="vehroute_flow_2_phase1_N_left.1 tripinfo_flow_2_phase1_N_left.1" vType="moto" speedFactor="1.12" vaporized=""/>
    <tripinfo id="flow_3_phase1_N_right.1" depart="35.00" departLane="N_in_0" departPos="93.41" departSpeed="11.32" departDelay="0.82" arrival="77.00" arrivalLane="W_out_0" arrivalPos="189.60" arrivalSpeed="11.11" duration="42.00" routeLength="294.82" waitingTime="9.00" waitingCount="1" stopTime="0.00" timeLoss="16.58" rerouteNo="0" devices="vehroute_flow_3_phase1_N_right.1 tripinfo_flow_3_phase1_N_right.1" vType="moto" speedFactor="0.88" vaporized=""/>
    <tripinfo id="flow_1_phase1_N_straight.2" depart="28.00" departLane="N_in_0" departPos="8.88" departSpeed="2.33" departDelay="0.97" arrival="78.00" arrivalLane="S_out_0" arrivalPos="189.60" arrivalSpeed="12.31" duration="50.00" routeLength="391.12" waitingTime="9.00" waitingCount="1" stopTime="0.00" timeLoss="19.52" rerouteNo="0" devices="vehroute_flow_1_phase1_N_straight.2 tripinfo_flow_1_phase1_N_straight.2" vType="moto" speedFactor="0.93" vaporized=""/>
    <tripinfo id="flow_1_phase1_N_straight.3" depart="41.00" departLane="N_in_0" departPos="125.48" departSpeed="7.46" departDelay="0.45" arrival="79.00" arrivalLane="S_out_1" arrivalPos="189.60" arrivalSpeed="15.09" duration="38.00" routeLength="274.52" waitingTime="9.00" waitingCount="2" stopTime="0.00" timeLoss="20.26" rerouteNo="0" devices="vehroute_flow_1_phase1_N_straight.3 tripinfo_flow_1_phase1_N_straight.3" vType="moto" speedFactor="1.20" vaporized=""/>
    <tripinfo id="flow_1_phase1_N_straight.4" depart="55.00" departLane="N_in_0" departPos="125.76" departSpeed="4.40" departDelay="0.94" arrival="80.00" arrivalLane="S_out_0" arrivalPos="189.60" arrivalSpeed="12.06" duration="25.00" routeLength="274.24" waitingTime="0.00" waitingCount="0" stopTime="0.00" timeLoss="3.54" rerouteNo="0" devices="vehroute_flow_1_phase1_N_straight.4 tripinfo_flow_1_phase1_N_straight.4" vType="truck" speedFactor="0.92" vaporized=""/>
    <tripinfo id="flow_7_phase1_S_right.1" depart="33.00" departLane="S_in_1" departPos="128.68" departSpeed="2.32" departDelay="0.51" arrival="85.00" arrivalLane="E_out_0" arrivalPos="189.60" arrivalSpeed="10.57" duration="52.00" routeLength="259.55" waitingTime="11.00" waitingCount="1" stopTime="0.00" timeLoss="26.86" rerouteNo="0" devices="vehroute_flow_7_phase1_S_right.1 tripinfo_flow_7_phase1_S_right.1" vType="container" speedFactor="0.78" vaporized=""/>
    <tripinfo id="flow_15_phase1_W_right.1" depart="33.00" departLane="W_in_1" departPos="79.10" departSpeed="12.38" departDelay="0.16" arrival="87.00" arrivalLane="S_out_0" arrivalPos="189.60" arrivalSpeed="14.74" duration="54.00" routeLength="309.13" waitingTime="17.00" waitingCount="2" stopTime="0.00" timeLoss="32.19" rerouteNo="0" devices="vehroute_flow_15_phase1_W_right.1 tripinfo_flow_15_phase1_W_right.1" vType="moto" speedFactor="1.08" vaporized=""/>
    <tripinfo id="flow_6_phase1_S_left.2" depart="67.00" departLane="E_in_1" departPos="177.50" departSpeed="6.05" departDelay="0.10" arrival="89.00" arrivalLane="N_out_0" arrivalPos="189.60" arrivalSpeed="12.09" duration="22.00" routeLength="210.73" waitingTime="0.00" waitingCount="0" stopTime="0.00" timeLoss="3.86" rerouteNo="0" devices="vehroute_flow_6_phase1_S_left.2 tripinfo_flow_6_phase1_S_left.2" vType="truck" speedFactor="0.89" vaporized=""/>
    <tripinfo id="flow_9_phase1_E_straight.2" depart="26.00" departLane="W_in_1" departPos="12.70" departSpeed="12.82" departDelay="0.25" arrival="95.00" arrivalLane="N_out_1" arrivalPos="189.60" arrivalSpeed="13.51" duration="69.00" routeLength="385.85" waitingTime="16.00" waitingCount="3" stopTime="0.00" timeLoss="40.32" rerouteNo="0" devices="vehroute_flow_9_phase1_E_straight.2 tripinfo_flow_9_phase1_E_straight.2" vType="moto" speedFactor="0.99" vaporized=""/>
    <tripinfo id="flow_13_phase1_W_straight.2" depart="27.00" departLane="W_in_1" departPos="107.53" departSpeed="1.15" departDelay="0.23" arrival="95.00" arrivalLane="E_out_0" arrivalPos="189.60" arrivalSpeed="13.29" duration="68.00" routeLength="292.47" waitingTime="15.00" waitingCount="3" stopTime="0.00" timeLoss="45.45" rerouteNo="0" devices="vehroute_flow_13_phase1_W_straight.2 tripinfo_flow_13_phase1_W_straight.2" vType="bus" speedFactor="0.97" vaporized=""/>
    <tripinfo id="flow_13_phase1_W_straight.3" depart="41.00" departLane="W_in_1" departPos="23.57" departSpeed="4.10" departDelay="0.85" arrival="97.00" arrivalLane="E_out_0" arrivalPos="189.60" arrivalSpeed="14.44" duration="56.00" routeLength="376.43" waitingTime="10.00" waitingCount="1" stopTime="0.00" timeLoss="29.56" rerouteNo="0" devices="vehroute_flow_13_phase1_W_straight.3 tripinfo_flow_13_phase1_W_straight.3" vType="car" speedFactor="1.05" vaporized=""/>
    <tripinfo id="flow_13_phase1_W_straight.0" depart="0.00" departLane="W_in_0" departPos="24.53" departSpeed="3.79" departDelay="0.00" arrival="98.00" arrivalLane="E_out_0" arrivalPos="189.60" arrivalSpeed="11.30" duration="98.00" routeLength="375.47" waitingTime="28.00" waitingCount="4" stopTime="0.00" timeLoss="64.37" rerouteNo="0" devices="vehroute_flow_13_phase1_W_straight.0 tripinfo_flow_13_phase1_W_straight.0" vType="container" speedFactor="0.82" vaporized=""/>
    <tripinfo id="flow_12_phase1_E_uturn.1" depart="66.00" departLane="E_in_1" departPos="89.17" departSpeed="10.56" departDelay="0.19" arrival="100.00" arrivalLane="E_out_1" arrivalPos="189.60" arrivalSpeed="12.10" duration="34.00" routeLength="294.70" waitingTime="4.00" waitingCount="1" stopTime="0.00" timeLoss="10.34" rerouteNo="0" devices="vehroute_flow_12_phase1_E_uturn.1 tripinfo_flow_12_phase1_E_uturn.1" vType="moto" speedFactor="0.95" vaporized=""/>
    <tripinfo id="flow_5_phase1_S_straight.5" depart="67.00" departLane="S_in_1" departPos="74.60" departSpeed="12.15" departDelay="0.85" arrival="101.00" arrivalLane="N_out_1" arrivalPos="189.60" arrivalSpeed="13.69" duration="34.00" routeLength="325.40" waitingTime="3.00" waitingCount="1" stopTime="0.00" timeLoss="10.56" rerouteNo="0" devices="vehroute_flow_5_phase1_S_straight.5 tripinfo_flow_5_phase1_S_straight.5" vType="moto" speedFactor="1.03" vaporized=""/>
    <tripinfo id="flow_3_phase1_N_right.2" depart="69.00" departLane="N_in_0" departPos="42.85" departSpeed="1.50" departDelay="0.63" arrival="101.00" arrivalLane="W_out_0" arrivalPos="189.60" arrivalSpeed="14.78" duration="32.00" routeLength="345.38" waitingTime="0.00" waitingCount="0" stopTime="0.00" timeLoss="8.37" rerouteNo="0" devices="vehroute_flow_3_phase1_N_right.2 tripinfo_flow_3_phase1_N_right.2" vType="moto" speedFactor="1.10" vaporized=""/>
    <tripinfo id="flow_1_phase1_N_straight.5" depart="68.00" departLane="N_in_0" departPos="149.69" departSpeed="1.62" departDelay="0.42" arrival="103.00" arrivalLane="S_out_0" arrivalPos="189.60" arrivalSpeed="12.03" duration="35.00" routeLength="250.31" waitingTime="4.00" waitingCount="1" stopTime="0.00" timeLoss="14.65" rerouteNo="0" devices="vehroute_flow_1_phase1_N_straight.5 tripinfo_flow_1_phase1_N_straight.5" vType="moto" speedFactor="0.90" vaporized=""/>
    <tripinfo id="flow_7_phase1_S_right.2" depart="65.00" departLane="S_in_0" departPos="52.57" departSpeed="8.42" departDelay="0.01" arrival="107.00" arrivalLane="E_out_0" arrivalPos="189.60" arrivalSpeed="13.75" duration="42.00" routeLength="335.66" waitingTime="7.00" waitingCount="1" stopTime="0.00" timeLoss="16.92" rerouteNo="0" devices="vehroute_flow_7_phase1_S_right.2 tripinfo_flow_7_phase1_S_right.2" vType="moto" speedFactor="1.03" vaporized=""/>
    <tripinfo id="flow_5_phase1_S_straight.4" depart="53.00" departLane="S_in_1" departPos="74.07" departSpeed="0.57" departDelay="0.08" arrival="108.00" arrivalLane="N_out_0" arrivalPos="189.60" arrivalSpeed="13.29" duration="55.00" routeLength="325.93" waitingTime="9.00" waitingCount="1" stopTime="0.00" timeLoss="30.67" rerouteNo="0" devices="vehroute_flow_5_phase1_S_straight.4 tripinfo_flow_5_phase1_S_straight.4" vType="container" speedFactor="0.97" vaporized=""/>
    <tripinfo id="flow_1_phase1_N_straight.6" depart="82.00" departLane="N_in_1" departPos="142.12" departSpeed="0.47" departDelay="0.90" arrival="110.00" arrivalLane="S_out_0" arrivalPos="189.60" arrivalSpeed="13.58" duration="28.00" routeLength="257.88" waitingTime="0.00" waitingCount="0" stopTime="0.00" timeLoss="8.76" rerouteNo="0" devices="vehroute_flow_1_phase1_N_straight.6 tripinfo_flow_1_phase1_N_straight.6" vType="car" speedFactor="0.98" vaporized=""/>
    <tripinfo id="flow_8_phase1_S_uturn.1" depart="66.00" departLane="S_in_0" departPos="31.76" departSpeed="11.80" departDelay="0.07" arrival="111.00" arrivalLane="S_out_1" arrivalPos="189.60" arrivalSpeed="12.83" duration="45.00" routeLength="352.11" waitingTime="4.00" waitingCount="2" stopTime="0.00" timeLoss="16.62" rerouteNo="0" devices="vehroute_flow_8_phase1_S_uturn.1 tripinfo_flow_8_phase1_S_uturn.1" vType="truck" speedFactor="0.94" vaporized=""/>
    <tripinfo id="flow_5_phase1_S_straight.6" depart="80.00" departLane="S_in_1" departPos="41.83" departSpeed="14.36" departDelay="0.62" arrival="111.00" arrivalLane="N_out_1" arrivalPos="189.60" arrivalSpeed="14.29" duration="31.00" routeLength="358.17" waitingTime="0.00" waitingCount="0" stopTime="0.00" timeLoss="6.92" rerouteNo="0" devices="vehroute_flow_5_phase1_S_straight.6 tripinfo_flow_5_phase1_S_straight.6" vType="moto" speedFactor="1.10" vaporized=""/>
    <tripinfo id="flow_2_phase1_N_left.2" depart="66.00" departLane="N_in_1" departPos="168.21" departSpeed="12.13" departDelay="0.64" arrival="114.00" arrivalLane="E_out_1" arrivalPos="189.60" arrivalSpeed="14.92" duration="48.00" routeLength="230.34" waitingTime="23.00" waitingCount="2" stopTime="0.00" timeLoss="31.67" rerouteNo="0" devices="vehroute_flow_2_phase1_N_left.2 tripinfo_flow_2_phase1_N_left.2" vType="emergency" speedFactor="1.10" vaporized=""/>
    <tripinfo id="flow_4_phase1_N_uturn.1" depart="67.00" departLane="N_in_0" departPos="78.09" departSpeed="11.85" departDelay="0.96" arrival="118.00" arrivalLane="N_out_1" arrivalPos="189.60" arrivalSpeed="11.94" duration="51.00" routeLength="305.78" waitingTime="15.00" waitingCount="2" stopTime="0.00" timeLoss="25.98" rerouteNo="0" devices="vehroute_flow_4_phase1_N_uturn.1 tripinfo_flow_4_phase1_N_uturn.1" vType="moto" speedFactor="0.94" vaporized=""/>
    <tripinfo id="flow_2_phase1_N_left.3" depart="99.00" departLane="N_in_0" departPos="171.56" departSpeed="10.51" departDelay="0.96" arrival="122.00" arrivalLane="E_out_1" arrivalPos="189.60" arrivalSpeed="11.97" duration="23.00" routeLength="226.99" waitingTime="0.00" waitingCount="0" stopTime="0.00" timeLoss="2.63" rerouteNo="0" devices="vehroute_flow_2_phase1_N_left.3 tripinfo_flow_2_phase1_N_left.3" vType="moto" speedFactor="0.89" vaporized=""/>
    <tripinfo id="flow_11_phase1_E_right.1" depart="33.00" departLane="W_in_0" departPos="73.90" departSpeed="8.86" departDelay="0.51" arrival="123.00" arrivalLane="W_out_1" arrivalPos="189.60" arrivalSpeed="13.15" duration="90.00" routeLength="309.97" waitingTime="39.00" waitingCount="3" stopTime="0.00" timeLoss="67.53" rerouteNo="0" devices="vehroute_flow_11_phase1_E_right.1 tripinfo_flow_11_phase1_E_right.1" vType="moto" speedFactor="1.04" vaporized=""/>
    <tripinfo id="flow_10_phase1_E_left.2" depart="67.00" departLane="W_in_1" departPos="63.10" departSpeed="6.86" departDelay="0.00" arrival="127.00" arrivalLane="S_out_0" arrivalPos="189.60" arrivalSpeed="14.35" duration="60.00" routeLength="325.13" waitingTime="21.00" waitingCount="1" stopTime="0.00" timeLoss="37.56" rerouteNo="0" devices="vehroute_flow_10_phase1_E_left.2 tripinfo_flow_10_phase1_E_left.2" vType="moto" speedFactor="1.07" vaporized=""/>
    <tripinfo id="flow_6_phase1_S_left.3" depart="101.00" departLane="E_in_0" departPos="50.11" departSpeed="5.29" departDelay="0.64" arrival="128.00" arrivalLane="N_out_0" arrivalPos="189.60" arrivalSpeed="14.87" duration="27.00" routeLength="338.12" waitingTime="0.00" waitingCount="0" stopTime="0.00" timeLoss="3.69" rerouteNo="0" devices="vehroute_flow_6_phase1_S_left.3 tripinfo_flow_6_phase1_S_left.3" vType="car" speedFactor="1.10" vaporized=""/>
    <tripinfo id="flow_13_phase1_W_straight.4" depart="54.00" departLane="W_in_1" departPos="29.12" departSpeed="11.82" departDelay="0.46" arrival="130.00" arrivalLane="E_out_0" arrivalPos="189.60" arrivalSpeed="11.42" duration="76.00" routeLength="370.88" waitingTime="21.00" waitingCount="1" stopTime="0.00" timeLoss="44.68" rerouteNo="0" devices="vehroute_flow_13_phase1_W_straight.4 tripinfo_flow_13_phase1_W_straight.4" vType="bus" speedFactor="0.87" vaporized=""/>
    <tripinfo id="flow_13_phase1_W_straight.5" depart="67.00" departLane="W_in_1" departPos="84.66" departSpeed="2.43" departDelay="0.08" arrival="132.00" arrivalLane="E_out_0" arrivalPos="189.60" arrivalSpeed="15.28" duration="65.00" routeLength="315.34" waitingTime="20.00" waitingCount="1" stopTime="0.00" timeLoss="44.52" rerouteNo="0" devices="vehroute_flow_13_phase1_W_straight.5 tripinfo_flow_13_phase1_W_straight.5" vType="moto" speedFactor="1.14" vaporized=""/>
    <tripinfo id="flow_14_phase1_W_left.1" depart="35.00" departLane="W_in_0" departPos="86.42" departSpeed="9.04" departDelay="0.53" arrival="133.00" arrivalLane="N_out_1" arrivalPos="189.60" arrivalSpeed="12.56" duration="98.00" routeLength="312.13" waitingTime="33.00" waitingCount="3" stopTime="0.00" timeLoss="72.07" rerouteNo="0" devices="vehroute_flow_14_phase1_W_left.1 tripinfo_flow_14_phase1_W_left.1" vType="container" speedFactor="0.91" vaporized=""/>
    <tripinfo id="flow_5_phase1_S_straight.8" depart="106.00" departLane="S_in_0" departPos="38.29" departSpeed="14.53" departDelay="0.16" arrival="135.00" arrivalLane="N_out_1" arrivalPos="189.60" arrivalSpeed="15.19" duration="29.00" routeLength="361.71" waitingTime="0.00" waitingCount="0" stopTime="0.00" timeLoss="5.58" rerouteNo="0" devices="vehroute_flow_5_phase1_S_straight.8 tripinfo_flow_5_phase1_S_straight.8" vType="emergency" speedFactor="1.14" vaporized=""/>
    <tripinfo id="flow_3_phase1_N_right.3" depart="103.00" departLane="N_in_1" departPos="177.75" departSpeed="4.14" departDelay="0.45" arrival="137.00" arrivalLane="W_out_0" arrivalPos="189.60" arrivalSpeed="12.19" duration="34.00" routeLength="210.48" waitingTime="11.00" waitingCount="1" stopTime="0.00" timeLoss="17.29" rerouteNo="0" devices="vehroute_flow_3_phase1_N_right.3 tripinfo_flow_3_phase1_N_right.3" vType="moto" speedFactor="0.96" vaporized=""/>
    <tripinfo id="flow_5_phase1_S_straight.9" depart="120.00" departLane="S_in_1" departPos="168.32" departSpeed="5.46" departDelay="0.93" arrival="137.00" arrivalLane="N_out_1" arrivalPos="189.60" arrivalSpeed="15.49" duration="17.00" routeLength="231.68" waitingTime="0.00" waitingCount="0" stopTime="0.00" timeLoss="1.91" rerouteNo="0" devices="vehroute_flow_5_phase1_S_straight.9 tripinfo_flow_5_phase1_S_straight.9" vType="moto" speedFactor="1.30" vaporized=""/>
    <tripinfo id="flow_1_phase1_N_straight.7" depart="95.00" departLane="N_in_0" departPos="36.14" departSpeed="8.93" departDelay="0.39" arrival="138.00" arrivalLane="S_out_0" arrivalPos="189.60" arrivalSpeed="13.51" duration="43.00" routeLength="363.86" waitingTime="8.00" waitingCount="1" stopTime="0.00" timeLoss="17.58" rerouteNo="0" devices="vehroute_flow_1_phase1_N_straight.7 tripinfo_flow_1_phase1_N_straight.7" vType="moto" speedFactor="1.06" vaporized=""/>
    <tripinfo id="flow_1_phase1_N_straight.8" depart="109.00" departLane="N_in_0" departPos="110.64" departSpeed="7.37" departDelay="0.87" arrival="139.00" arrivalLane="S_out_0" arrivalPos="189.60" arrivalSpeed="13.23" duration="30.00" routeLength="289.36" waitingTime="0.00" waitingCount="0" stopTime="0.00" timeLoss="7.95" rerouteNo="0" devices="vehroute_flow_1_phase1_N_straight.8 tripinfo_flow_1_phase1_N_straight.8" vType="moto" speedFactor="0.97" vaporized=""/>
    <tripinfo id="flow_7_phase1_S_right.3" depart="98.00" departLane="S_in_1" departPos="20.79" departSpeed="5.86" departDelay="0.52" arrival="142.00" arrivalLane="E_out_0" arrivalPos="189.60" arrivalSpeed="13.84" duration="44.00" routeLength="367.44" waitingTime="7.00" waitingCount="1" stopTime="0.00" timeLoss="17.70" rerouteNo="0" devices="vehroute_flow_7_phase1_S_right.3 tripinfo_flow_7_phase1_S_right.3" vType="moto" speedFactor="1.07" vaporized=""/>
    <tripinfo id="flow_5_phase1_S_straight.7" depart="93.00" departLane="S_in_1" departPos="111.57" departSpeed="0.09" departDelay="0.39" arrival="143.00" arrivalLane="N_out_0" arrivalPos="189.60" arrivalSpeed="12.30" duration="50.00" routeLength="288.43" waitingTime="9.00" waitingCount="1" stopTime="0.00" timeLoss="26.43" rerouteNo="0" devices="vehroute_flow_5_phase1_S_straight.7 tripinfo_flow_5_phase1_S_straight.7" vType="bus" speedFactor="0.90" vaporized=""/>
    <tripinfo id="flow_1_phase1_N_straight.9" depart="122.00" departLane="N_in_0" departPos="45.79" departSpeed="8.78" departDelay="0.36" arrival="150.00" arrivalLane="S_out_0" arrivalPos="189.60" arrivalSpeed="12.98" duration="28.00" routeLength="354.21" waitingTime="0.00" waitingCount="0" stopTime="0.00" timeLoss="1.40" rerouteNo="0" devices="vehroute_flow_1_phase1_N_straight.9 tripinfo_flow_1_phase1_N_straight.9" vType="truck" speedFactor="0.97" vaporized=""/>
    <tripinfo id="flow_7_phase1_S_right.4" depart="130.00" departLane="S_in_0" departPos="140.18" departSpeed="12.29" departDelay="0.02" arrival="152.00" arrivalLane="E_out_0" arrivalPos="189.60" arrivalSpeed="12.21" duration="22.00" routeLength="248.05" waitingTime="0.00" waitingCount="0" stopTime="0.00" timeLoss="2.58" rerouteNo="0" devices="vehroute_flow_7_phase1_S_right.4 tripinfo_flow_7_phase1_S_right.4" vType="moto" speedFactor="0.96" vaporized=""/>