<?xml version="1.0" encoding="UTF-8"?>

<!-- generated on 2025-12-08 21:47:46 by Eclipse SUMO sumo Version 1.18.0
<configuration xmlns:xsi="http://www.w3.org/2001/XMLSchema-instance" xsi:noNamespaceSchemaLocation="http://sumo.dlr.de/xsd/sumoConfiguration.xsd">

    <input>
        <net-file value="nets/60p2k/net.net.xml"/>
        <route-files value="nets/60p2k/route_temp_281_124147880884016_33742306.rou.xml"/>
    </input>

    <output>
        <summary-output value="result_ddqn_1.9_0.4/summary_ep_20.xml"/>
        <tripinfo-output value="result_ddqn_1.9_0.4/tripinfo_ep_20.xml"/>
        <vehroute-output value="result_ddqn_1.9_0.4/vehroute_ep_20.xml"/>
    </output>

    <time>
        <begin value="0"/>
    </time>

    <report>
        <verbose value="true"/>
        <no-warnings value="true"/>
        <no-step-log value="true"/>
    </report>

    <traci_server>
        <remote-port value="52337"/>
    </traci_server>

    <gui_only>
        <gui-settings-file value="nets/60p2k/gui-settings.xml"/>
        <quit-on-end value="true"/>
    </gui_only>

</configuration>
-->

<routes xmlns:xsi="http://www.w3.org/2001/XMLSchema-instance" xsi:noNamespaceSchemaLocation="http://sumo.dlr.de/xsd/routes_file.xsd">
    <vehicle id="flow_3_phase1_N_right.0" type="car" depart="0.00" departLane="0" departPos="103.3842" departSpeed="3.7523" speedFactor="1.0907" arrival="24.00">
        <route edges="S_in E_out"/>
    </vehicle>

    <vehicle id="flow_5_phase1_S_straight.0" type="moto" depart="0.00" departLane="1" departPos="107.3659" departSpeed="7.2113" speedFactor="1.1475" arrival="25.00">
        <route edges="N_in S_out"/>
    </vehicle>

    <vehicle id="flow_6_phase1_S_left.0" type="moto" depart="0.00" departLane="1" departPos="166.0107" departSpeed="0.7376" speedFactor="0.8806" arrival="25.00">
        <route edges="S_in W_out"/>
    </vehicle>

    <vehicle id="flow_4_phase1_N_uturn.0" type="car" depart="0.00" departLane="1" departPos="127.6015" departSpeed="0.0774" speedFactor="0.9228" arrival="27.00">
        <route edges="N_in N_out"/>
    </vehicle>

    <vehicle id="flow_14_phase1_W_left.0" type="moto" depart="0.00" departLane="1" departPos="42.3057" departSpeed="3.7077" speedFactor="1.0101" arrival="31.00">
        <route edges="N_in N_out"/>
    </vehicle>

    <vehicle id="flow_8_phase1_S_uturn.0" type="moto" depart="0.00" departLane="0" departPos="120.1072" departSpeed="4.4837" speedFactor="1.0505" arrival="36.00">
        <route edges="E_in S_out"/>
    </vehicle>

    <vehicle id="flow_16_phase1_W_uturn.0" type="moto" depart="0.00" departLane="1" departPos="126.6766" departSpeed="1.2848" speedFactor="1.0383" arrival="37.00">
        <route edges="W_in W_out"/>
    </vehicle>

    <vehicle id="flow_15_phase1_W_right.0" type="moto" depart="0.00" departLane="1" departPos="45.7673" departSpeed="6.7313" speedFactor="0.8472" arrival="39.00">
        <route edges="W_in S_out"/>
    </vehicle>

    <vehicle id="flow_2_phase1_N_left.0" type="moto" depart="0.00" departLane="1" departPos="8.2688" departSpeed="8.3291" speedFactor="1.0157" arrival="40.00">
        <route edges="W_in S_out"/>
    </vehicle>

    <vehicle id="flow_9_phase1_E_straight.0" type="truck" depart="0.00" departLane="0" departPos="168.2937" departSpeed="9.8263" speedFactor="0.8990" arrival="41.00">
        <route edges="E_in W_out"/>
    </vehicle>

    <vehicle id="flow_12_phase1_E_uturn.0" type="moto" depart="0.00" departLane="0" departPos="5.6544" departSpeed="13.7593" speedFactor="1.0348" arrival="41.00">
        <route edges="W_in N_out"/>
    </vehicle>

    <vehicle id="flow_11_phase1_E_right.0" type="bus" depart="0.00" departLane="1" departPos="144.9496" departSpeed="4.0187" speedFactor="0.9581" arrival="42.00">
        <route edges="E_in N_out"/>
    </vehicle>

    <vehicle id="flow_9_phase1_E_straight.1" type="moto" depart="13.00" departLane="0" departPos="131.129" departSpeed="9.5396" speedFactor="1.1582" arrival="43.00">
        <route edges="E_in W_out"/>
    </vehicle>

    <vehicle id="flow_13_phase1_W_straight.0" type="container" depart="0.00" departLane="0" departPos="77.991" departSpeed="3.7887" speedFactor="0.8227" arrival="46.00">
        <route edges="E_in S_out"/>
    </vehicle>

    <vehicle id="flow_10_phase1_E_left.0" type="truck" depart="0.00" departLane="0" departPos="44.8816" departSpeed="7.6878" speedFactor="1.0161" arrival="48.00">
        <route edges="E_in S_out"/>
    </vehicle>

    <vehicle id="flow_5_phase1_S_straight.1" type="moto" depart="14.00" departLane="1" departPos="31.9285" departSpeed="9.2811" speedFactor="1.1853" arrival="48.00">
        <route edges="N_in S_out"/>
    </vehicle>

    <vehicle id="flow_7_phase1_S_right.0" type="container" depart="0.00" departLane="0" departPos="8.759" departSpeed="8.0654" speedFactor="0.8488" arrival="58.00">
        <route edges="S_in E_out"/>
    </vehicle>

    <vehicle id="flow_5_phase1_S_straight.2" type="moto" depart="27.00" departLane="1" departPos="12.6982" departSpeed="12.4143" speedFactor="0.9623" arrival="58.00">
        <route edges="N_in S_out"/>
    </vehicle>

    <vehicle id="flow_2_phase1_N_left.1" type="moto" depart="33.00" departLane="0" departPos="136.8677" departSpeed="1.2485" speedFactor="1.1228" arrival="60.00">
        <route edges="W_in S_out"/>
    </vehicle>

    <vehicle id="flow_11_phase1_E_right.1" type="moto" depart="33.00" departLane="1" departPos="156.5209" departSpeed="6.0975" speedFactor="1.0365" arrival="61.00">
        <route edges="E_in N_out"/>
    </vehicle>

    <vehicle id="flow_15_phase1_W_right.1" type="moto" depart="33.00" departLane="0" departPos="69.2372" departSpeed="6.2557" speedFactor="1.0788" arrival="62.00">
        <route edges="W_in S_out"/>
    </vehicle>

    <vehicle id="flow_9_phase1_E_straight.2" type="moto" depart="26.00" departLane="1" departPos="52.8684" departSpeed="0.3845" speedFactor="0.9938" arrival="63.00">
        <route edges="E_in W_out"/>
    </vehicle>

    <vehicle id="flow_1_phase1_N_straight.0" type="bus" depart="0.00" departLane="0" departPos="8.6229" departSpeed="8.5053" speedFactor="0.8588" arrival="68.00">
        <route edges="E_in S_out"/>
    </vehicle>

    <vehicle id="flow_13_phase1_W_straight.1" type="car" depart="14.00" departLane="1" departPos="121.6549" departSpeed="2.8591" speedFactor="1.1218" arrival="70.00">
        <route edges="E_in S_out"/>
    </vehicle>

    <vehicle id="flow_13_phase1_W_straight.3" type="car" depart="41.00" departLane="0" departPos="160.3044" departSpeed="9.362" speedFactor="1.0479" arrival="72.00">
        <route edges="E_in S_out"/>
    </vehicle>

    <vehicle id="flow_5_phase1_S_straight.3" type="moto" depart="40.00" departLane="0" departPos="167.2268" departSpeed="2.112" speedFactor="1.0764" arrival="74.00">
        <route edges="N_in S_out"/>
    </vehicle>

    <vehicle id="flow_3_phase1_N_right.1" type="moto" depart="35.00" departLane="0" departPos="132.6219" departSpeed="4.1969" speedFactor="0.8806" arrival="76.00">
        <route edges="S_in E_out"/>
    </vehicle>

    <vehicle id="flow_14_phase1_W_left.1" type="container" depart="35.00" departLane="0" departPos="125.4807" departSpeed="5.9284" speedFactor="0.9146" arrival="80.00">
        <route edges="N_in N_out"/>
    </vehicle>

    <vehicle id="flow_5_phase1_S_straight.4" type="container" depart="53.00" departLane="1" departPos="111.6918" departSpeed="5.8129" speedFactor="0.9706" arrival="83.00">
        <route edges="N_in S_out"/>
    </vehicle>

    <vehicle id="flow_7_phase1_S_right.1" type="container" depart="33.00" departLane="1" departPos="40.2647" departSpeed="3.1627" speedFactor="0.7845" arrival="86.00">
        <route edges="S_in E_out"/>
    </vehicle>

    <vehicle id="flow_6_phase1_S_left.1" type="moto" depart="34.00" departLane="1" departPos="57.3992" departSpeed="0.3465" speedFactor="1.0453" arrival="86.00">
        <route edges="S_in W_out"/>
    </vehicle>

    <vehicle id="flow_2_phase1_N_left.2" type="emergency" depart="66.00" departLane="1" departPos="124.8757" departSpeed="0.0131" speedFactor="1.0989" arrival="89.00">
        <route edges="W_in S_out"/>
    </vehicle>

    <vehicle id="flow_1_phase1_N_straight.1" type="moto" depart="14.00" departLane="1" departPos="58.3562" departSpeed="11.6446" speedFactor="0.8727" arrival="91.00">
        <route edges="E_in S_out"/>
    </vehicle>

    <vehicle id="flow_16_phase1_W_uturn.1" type="moto" depart="67.00" departLane="0" departPos="149.6933" departSpeed="1.8702" speedFactor="1.0390" arrival="91.00">
        <route edges="W_in W_out"/>
    </vehicle>

    <vehicle id="flow_13_phase1_W_straight.2" type="bus" depart="27.00" departLane="1" departPos="16.309" departSpeed="12.7113" speedFactor="0.9657" arrival="94.00">
        <route edges="E_in S_out"/>
    </vehicle>

    <vehicle id="flow_15_phase1_W_right.2" type="moto" depart="66.00" departLane="1" departPos="74.602" departSpeed="10.1157" speedFactor="0.8882" arrival="95.00">
        <route edges="W_in S_out"/>
    </vehicle>

    <vehicle id="flow_7_phase1_S_right.2" type="moto" depart="65.00" departLane="0" departPos="168.2148" departSpeed="0.209" speedFactor="1.0283" arrival="100.00">
        <route edges="S_in E_out"/>
    </vehicle>

    <vehicle id="flow_1_phase1_N_straight.4" type="truck" depart="55.00" departLane="0" departPos="179.131" departSpeed="6.4893" speedFactor="0.9194" arrival="101.00">
        <route edges="E_in S_out"/>
    </vehicle>

    <vehicle id="flow_4_phase1_N_uturn.1" type="moto" depart="67.00" departLane="1" departPos="177.4982" departSpeed="6.3513" speedFactor="0.9374" arrival="101.00">
        <route edges="N_in N_out"/>
    </vehicle>

    <vehicle id="flow_5_phase1_S_straight.5" type="moto" depart="67.00" departLane="1" departPos="159.9604" departSpeed="6.6046" speedFactor="1.0265" arrival="101.00">
        <route edges="N_in S_out"/>
    </vehicle>

    <vehicle id="flow_3_phase1_N_right.2" type="moto" depart="69.00" departLane="1" departPos="174.3479" departSpeed="2.9984" speedFactor="1.1043" arrival="102.00">
        <route edges="S_in E_out"/>
    </vehicle>

    <vehicle id="flow_5_phase1_S_straight.6" type="moto" depart="80.00" departLane="0" departPos="174.056" departSpeed="3.3681" speedFactor="1.0983" arrival="102.00">
        <route edges="N_in S_out"/>
    </vehicle>

    <vehicle id="flow_14_phase1_W_left.2" type="car" depart="69.00" departLane="0" departPos="161.3057" departSpeed="3.1251" speedFactor="0.8975" arrival="105.00">
        <route edges="N_in N_out"/>
    </vehicle>

    <vehicle id="flow_6_phase1_S_left.2" type="truck" depart="67.00" departLane="1" departPos="29.0743" departSpeed="2.5737" speedFactor="0.8923" arrival="110.00">
        <route edges="S_in W_out"/>
    </vehicle>

    <vehicle id="flow_1_phase1_N_straight.2" type="moto" depart="28.00" departLane="0" departPos="34.2537" departSpeed="2.672" speedFactor="0.9279" arrival="115.00">
        <route edges="E_in S_out"/>
    </vehicle>

    <vehicle id="flow_2_phase1_N_left.3" type="moto" depart="99.00" departLane="0" departPos="178.6166" departSpeed="6.7341" speedFactor="0.8878" arrival="120.00">
        <route edges="W_in S_out"/>
    </vehicle>

    <vehicle id="flow_9_phase1_E_straight.3" type="bus" depart="39.00" departLane="1" departPos="23.5668" departSpeed="3.3283" speedFactor="0.8515" arrival="121.00">
        <route edges="E_in W_out"/>
    </vehicle>

    <vehicle id="flow_15_phase1_W_right.3" type="moto" depart="99.00" departLane="0" departPos="173.6034" departSpeed="3.5508" speedFactor="1.1705" arrival="121.00">
        <route edges="W_in S_out"/>
    </vehicle>

    <vehicle id="flow_10_phase1_E_left.1" type="truck" depart="34.00" departLane="1" departPos="56.1823" departSpeed="6.1967" speedFactor="0.7665" arrival="123.00">
        <route edges="E_in S_out"/>
    </vehicle>

    <vehicle id="flow_9_phase1_E_straight.4" type="bus" depart="52.00" departLane="1" departPos="65.3279" departSpeed="11.9744" speedFactor="0.9525" arrival="123.00">
        <route edges="E_in W_out"/>
    </vehicle>

    <vehicle id="flow_1_phase1_N_straight.3" type="moto" depart="41.00" departLane="0" departPos="8.0759" departSpeed="7.6804" speedFactor="1.2027" arrival="125.00">
        <route edges="E_in S_out"/>
    </vehicle>

    <vehicle id="flow_12_phase1_E_uturn.1" type="moto" depart="66.00" departLane="1" departPos="21.6793" departSpeed="5.4483" speedFactor="0.9517" arrival="126.00">
        <route edges="W_in N_out"/>
    </vehicle>

    <vehicle id="flow_13_phase1_W_straight.4" type="bus" depart="54.00" departLane="1" departPos="19.5053" departSpeed="4.584" speedFactor="0.8691" arrival="127.00">
        <route edges="E_in S_out"/>
    </vehicle>

    <vehicle id="flow_7_phase1_S_right.3" type="moto" depart="98.00" departLane="1" departPos="20.793" departSpeed="5.8566" speedFactor="1.0682" arrival="128.00">
        <route edges="S_in E_out"/>
    </vehicle>

    <vehicle id="flow_14_phase1_W_left.3" type="moto" depart="104.00" departLane="1" departPos="174.1059" departSpeed="8.6979" speedFactor="1.0873" arrival="128.00">
        <route edges="N_in N_out"/>
    </vehicle>

    <vehicle id="flow_5_phase1_S_straight.7" type="bus" depart="93.00" departLane="1" departPos="111.5719" departSpeed="0.0922" speedFactor="0.9040" arrival="129.00">
        <route edges="N_in S_out"/>
    </vehicle>

    <vehicle id="flow_5_phase1_S_straight.8" type="emergency" depart="106.00" departLane="1" departPos="53.9882" departSpeed="5.4243" speedFactor="1.1380" arrival="130.00">
        <route edges="N_in S_out"/>
    </vehicle>

    <vehicle id="flow_3_phase1_N_right.3" type="moto" depart="103.00" departLane="1" departPos="58.7528" departSpeed="11.0725" speedFactor="0.9618" arrival="132.00">
        <route edges="S_in E_out"/>
    </vehicle>

    <vehicle id="flow_6_phase1_S_left.3" type="car" depart="101.00" departLane="0" departPos="65.7387" departSpeed="2.8671" speedFactor="1.0972" arrival="134.00">
        <route edges="S_in W_out"/>
    </vehicle>

    <vehicle id="flow_11_phase1_E_right.2" type="moto" depart="65.00" departLane="1" departPos="89.1662" departSpeed="10.8655" speedFactor="1.1432" arrival="138.00">
        <route edges="E_in N_out"/>
    </vehicle>

    <vehicle id="flow_9_phase1_E_straight.5" type="moto" depart="65.00" departLane="0" departPos="31.7588" departSpeed="12.5116" speedFactor="0.9964" arrival="142.00">
        <route edges="E_in W_out"/>
    </vehicle>

    <vehicle id="flow_8_phase1_S_uturn.1" type="truck" depart="66.00" departLane="1" departPos="92.2234" departSpeed="0.1524" speedFactor="0.9396" arrival="144.00">
        <route edges="E_in S_out"/>
    </vehicle>

    <vehicle id="flow_9_phase1_E_straight.6" type="moto" depart="78.00" departLane="1" departPos="45.2041" departSpeed="2.702" speedFactor="1.0203" arrival="144.00">
        <route edges="E_in W_out"/>
    </vehicle>

    <vehicle id="flow_9_phase1_E_straight.7" type="moto" depart="91.00" departLane="1" departPos="22.6438" departSpeed="10.3885" speedFactor="1.0085" arrival="147.00">
        <route edges="E_in W_out"/>
    </vehicle>

    <vehicle id="flow_11_phase1_E_right.3" type="moto" depart="98.00" departLane="1" departPos="109.812" departSpeed="0.1349" speedFactor="0.8330" arrival="148.00">
        <route edges="E_in N_out"/>
    </vehicle>

    <vehicle id="flow_13_phase1_W_straight.7" type="moto" depart="94.00" departLane="0" departPos="150.3232" departSpeed="1.5429" speedFactor="0.8003" arrival="149.00">
        <route edges="E_in S_out"/>
    </vehicle>

    <vehicle id="flow_10_phase1_E_left.2" type="moto" depart="67.00" departLane="1" departPos="84.296" departSpeed="0.4472" speedFactor="1.0668" arrival="150.00">
        <route edges="E_in S_out"/>
    </vehicle>

    <vehicle id="flow_13_phase1_W_straight.5" type="moto" depart="67.00" departLane="1" departPos="29.8839" departSpeed="12.719" speedFactor="1.1413" arrival="151.00">
        <route edges="E_in S_out"/>
    </vehicle>

    <vehicle id="flow_5_phase1_S_straight.9" type="moto" depart="120.00" departLane="1" departPos="168.3233" departSpeed="5.4621" speedFactor="1.2976" arrival="152.00">
        <route edges="N_in S_out"/>
    </vehicle>

    <vehicle id="flow_7_phase1_S_right.4" type="moto" depart="130.00" departLane="0" departPos="140.1793" departSpeed="12.2914" speedFactor="0.9645" arrival="153.00">
        <route edges="S_in E_out"/>
    </vehicle>

    <vehicle id="flow_5_phase1_S_straight.10" type="moto" depart="133.00" departLane="1" departPos="149.7816" departSpeed="12.969" speedFactor="1.0281" arrival="153.00">
        <route edges="N_in S_out"/>
    </vehicle>

    <vehicle id="flow_3_phase1_N_right.4" type="moto" depart="137.00" departLane="1" departPos="133.5978" departSpeed="9.857" speedFactor="1.0387" arrival="159.00">
        <route edges="S_in E_out"/>
    </vehicle>

    <vehicle id="flow_6_phase1_S_left.4" type="moto" depart="134.00" departLane="0" departPos="60.9644" departSpeed="12.8599" speedFactor="1.0387" arrival="161.00">
        <route edges="S_in W_out"/>
    </vehicle>

    <vehicle id="flow_4_phase1_N_uturn.2" type="car" depart="133.00" departLane="0" departPos="62.1003" departSpeed="8.1847" speedFactor="1.0323" arrival="162.00">
        <route edges="N_in N_out"/>
    </vehicle>

    <vehicle id="flow_1_phase1_N_straight.5" type="moto" depart="68.00" departLane="0" departPos="42.8454" departSpeed="1.225" speedFactor="0.9020" arrival="168.00">
        <route edges="E_in S_out"/>
    </vehicle>

    <vehicle id="flow_9_phase1_E_straight.8" type="moto" depart="104.00" departLane="0" departPos="2.521" departSpeed="4.7684" speedFactor="0.9385" arrival="168.00">
        <route edges="E_in W_out"/>
    </vehicle>

    <vehicle id="flow_13_phase1_W_straight.6" type="car" depart="81.00" departLane="1" departPos="76.4696" departSpeed="10.7572" speedFactor="0.9759" arrival="170.00">
        <route edges="E_in S_out"/>
    </vehicle>

    <vehicle id="flow_15_phase1_W_right.4" type="bus" depart="132.00" departLane="0" departPos="180.9021" departSpeed="5.8485" speedFactor="0.9032" arrival="170.00">
        <route edges="W_in S_out"/>
    </vehicle>

    <vehicle id="flow_9_phase1_E_straight.10" type="moto" depart="129.00" departLane="0" departPos="124.2821" departSpeed="13.8582" speedFactor="1.1157" arrival="171.00">
        <route edges="E_in W_out"/>
    </vehicle>

    <vehicle id="flow_1_phase1_N_straight.6" type="car" depart="82.00" departLane="0" departPos="6.5659" departSpeed="7.7565" speedFactor="0.9797" arrival="172.00">
        <route edges="E_in S_out"/>
    </vehicle>

    <vehicle id="flow_9_phase1_E_straight.9" type="truck" depart="116.00" departLane="1" departPos="90.8186" departSpeed="7.9963" speedFactor="1.0019" arrival="172.00">
        <route edges="E_in W_out"/>
    </vehicle>

    <vehicle id="flow_2_phase1_N_left.4" type="moto" depart="131.00" departLane="1" departPos="75.2144" departSpeed="7.4957" speedFactor="1.1571" arrival="172.00">
        <route edges="W_in S_out"/>
    </vehicle>

    <vehicle id="flow_1_phase1_N_straight.7" type="moto" depart="95.00" departLane="0" departPos="36.1365" departSpeed="8.9292" speedFactor="1.0626" arrival="173.00">
        <route edges="E_in S_out"/>
    </vehicle>

    <vehicle id="flow_12_phase1_E_uturn.2" type="bus" depart="132.00" departLane="0" departPos="77.131" departSpeed="6.5555" speedFactor="0.9315" arrival="182.00">
        <route edges="W_in N_out"/>
    </vehicle>

    <vehicle id="flow_5_phase1_S_straight.11" type="bus" depart="146.00" departLane="0" departPos="52.0012" departSpeed="2.0326" speedFactor="0.9784" arrival="187.00">
        <route edges="N_in S_out"/>
    </vehicle>

    <vehicle id="flow_5_phase1_S_straight.12" type="moto" depart="159.00" departLane="0" departPos="22.6696" departSpeed="7.8901" speedFactor="1.0699" arrival="187.00">
        <route edges="N_in S_out"/>
    </vehicle>

    <vehicle id="flow_7_phase1_S_right.5" type="truck" depart="163.00" departLane="0" departPos="114.397" departSpeed="14.2123" speedFactor="1.0532" arrival="187.00">
        <route edges="S_in E_out"/>
    </vehicle>

    <vehicle id="flow_14_phase1_W_left.4" type="bus" depart="138.00" departLane="0" departPos="144.3932" departSpeed="2.5113" speedFactor="0.8196" arrival="189.00">
        <route edges="N_in N_out"/>
    </vehicle>

    <vehicle id="flow_5_phase1_S_straight.13" type="moto" depart="172.00" departLane="0" departPos="154.1317" departSpeed="12.6098" speedFactor="1.2148" arrival="189.00">
        <route edges="N_in S_out"/>
    </vehicle>

    <vehicle id="flow_3_phase1_N_right.5" type="moto" depart="171.00" departLane="0" departPos="100.2317" departSpeed="9.453" speedFactor="0.9059" arrival="198.00">
        <route edges="S_in E_out"/>
    </vehicle>

    <vehicle id="flow_6_phase1_S_left.5" type="bus" depart="168.00" departLane="0" departPos="108.1078" departSpeed="1.9981" speedFactor="0.9819" arrival="200.00">
        <route edges="S_in W_out"/>
    </vehicle>

    <vehicle id="flow_14_phase1_W_left.5" type="bus" depart="173.00" departLane="0" departPos="98.4033" departSpeed="5.6758" speedFactor="0.9554" arrival="205.00">
        <route edges="N_in N_out"/>
    </vehicle>

    <vehicle id="flow_7_phase1_S_right.6" type="car" depart="195.00" departLane="1" departPos="175.2569" departSpeed="5.2303" speedFactor="1.1275" arrival="213.00">
        <route edges="S_in E_out"/>
    </vehicle>

    <vehicle id="flow_5_phase1_S_straight.15" type="container" depart="199.00" departLane="1" departPos="164.6966" departSpeed="11.5756" speedFactor="0.9628" arrival="218.00">
        <route edges="N_in S_out"/>
    </vehicle>

    <vehicle id="flow_2_phase1_N_left.5" type="car" depart="164.00" departLane="0" departPos="102.4343" departSpeed="0.0635" speedFactor="0.8868" arrival="225.00">
        <route edges="W_in S_out"/>
    </vehicle>

    <vehicle id="flow_12_phase1_E_uturn.3" type="moto" depart="198.00" departLane="0" departPos="111.5109" departSpeed="6.6345" speedFactor="1.0747" arrival="225.00">
        <route edges="W_in N_out"/>
    </vehicle>

    <vehicle id="flow_16_phase1_W_uturn.2" type="car" depart="133.00" departLane="1" departPos="81.1005" departSpeed="0.2018" speedFactor="0.8850" arrival="226.00">
        <route edges="W_in W_out"/>
    </vehicle>

    <vehicle id="flow_10_phase1_E_left.3" type="truck" depart="101.00" departLane="1" departPos="57.3268" departSpeed="6.6172" speedFactor="1.0651" arrival="227.00">
        <route edges="E_in S_out"/>
    </vehicle>

    <vehicle id="flow_15_phase1_W_right.5" type="car" depart="165.00" departLane="1" departPos="62.3987" departSpeed="9.8296" speedFactor="0.9653" arrival="227.00">
        <route edges="W_in S_out"/>
    </vehicle>

    <vehicle id="flow_13_phase1_W_straight.8" type="moto" depart="108.00" departLane="1" departPos="103.2677" departSpeed="4.559" speedFactor="1.0413" arrival="229.00">
        <route edges="E_in S_out"/>
    </vehicle>

    <vehicle id="flow_11_phase1_E_right.4" type="container" depart="130.00" departLane="0" departPos="5.0473" departSpeed="4.9985" speedFactor="1.0240" arrival="230.00">
        <route edges="E_in N_out"/>
    </vehicle>

    <vehicle id="flow_9_phase1_E_straight.11" type="moto" depart="142.00" departLane="1" departPos="72.1694" departSpeed="8.656" speedFactor="1.0448" arrival="230.00">
        <route edges="E_in W_out"/>
    </vehicle>

    <vehicle id="flow_1_phase1_N_straight.8" type="moto" depart="109.00" departLane="1" departPos="90.2975" departSpeed="6.8561" speedFactor="0.9730" arrival="231.00">
        <route edges="E_in S_out"/>
    </vehicle>

    <vehicle id="flow_2_phase1_N_left.6" type="moto" depart="197.00" departLane="1" departPos="147.9348" departSpeed="3.3969" speedFactor="0.8416" arrival="231.00">
        <route edges="W_in S_out"/>
    </vehicle>

    <vehicle id="flow_9_phase1_E_straight.12" type="moto" depart="155.00" departLane="0" departPos="11.4261" departSpeed="13.6104" speedFactor="1.0047" arrival="232.00">
        <route edges="E_in W_out"/>
    </vehicle>

    <vehicle id="flow_11_phase1_E_right.5" type="moto" depart="163.00" departLane="1" departPos="98.0837" departSpeed="3.937" speedFactor="1.2552" arrival="232.00">
        <route edges="E_in N_out"/>
    </vehicle>

    <vehicle id="flow_15_phase1_W_right.6" type="car" depart="198.00" departLane="1" departPos="43.9189" departSpeed="6.481" speedFactor="0.9559" arrival="233.00">
        <route edges="W_in S_out"/>
    </vehicle>

    <vehicle id="flow_1_phase1_N_straight.9" type="truck" depart="122.00" departLane="0" departPos="45.7887" departSpeed="8.7783" speedFactor="0.9670" arrival="234.00">
        <route edges="E_in S_out"/>
    </vehicle>

    <vehicle id="flow_9_phase1_E_straight.13" type="moto" depart="168.00" departLane="1" departPos="7.5649" departSpeed="1.5391" speedFactor="0.9282" arrival="236.00">
        <route edges="E_in W_out"/>
    </vehicle>

    <vehicle id="flow_13_phase1_W_straight.9" type="moto" depart="121.00" departLane="1" departPos="40.9491" departSpeed="1.7913" speedFactor="0.8391" arrival="238.00">
        <route edges="E_in S_out"/>
    </vehicle>

    <vehicle id="flow_9_phase1_E_straight.14" type="moto" depart="181.00" departLane="0" departPos="24.2894" departSpeed="1.4215" speedFactor="0.8543" arrival="239.00">
        <route edges="E_in W_out"/>
    </vehicle>

    <vehicle id="flow_8_phase1_S_uturn.2" type="moto" depart="132.00" departLane="1" departPos="45.6162" departSpeed="7.2837" speedFactor="0.9897" arrival="240.00">
        <route edges="E_in S_out"/>
    </vehicle>

    <vehicle id="flow_10_phase1_E_left.4" type="moto" depart="134.00" departLane="1" departPos="1.4852" departSpeed="11.894" speedFactor="1.0039" arrival="242.00">
        <route edges="E_in S_out"/>
    </vehicle>

    <vehicle id="flow_13_phase1_W_straight.10" type="moto" depart="134.00" departLane="0" departPos="10.777" departSpeed="6.3334" speedFactor="1.1421" arrival="243.00">
        <route edges="E_in S_out"/>
    </vehicle>

    <vehicle id="flow_16_phase1_W_uturn.3" type="bus" depart="199.00" departLane="0" departPos="96.5573" departSpeed="9.545" speedFactor="0.9363" arrival="243.00">
        <route edges="W_in W_out"/>
    </vehicle>

    <vehicle id="flow_11_phase1_E_right.6" type="car" depart="195.00" departLane="0" departPos="15.5939" departSpeed="9.1338" speedFactor="0.9838" arrival="247.00">
        <route edges="E_in N_out"/>
    </vehicle>

    <vehicle id="flow_9_phase1_E_straight.15" type="bus" depart="194.00" departLane="0" departPos="73.7109" departSpeed="11.7088" speedFactor="0.8815" arrival="248.00">
        <route edges="E_in W_out"/>
    </vehicle>

    <vehicle id="flow_1_phase1_N_straight.10" type="bus" depart="136.00" departLane="0" departPos="8.1725" departSpeed="3.5796" speedFactor="1.0325" arrival="249.00">
        <route edges="E_in S_out"/>
    </vehicle>

    <vehicle id="flow_13_phase1_W_straight.15" type="car" depart="201.00" departLane="0" departPos="67.2783" departSpeed="8.0006" speedFactor="1.0262" arrival="251.00">
        <route edges="E_in S_out"/>
    </vehicle>

    <vehicle id="flow_9_phase1_E_straight.16" type="moto" depart="207.00" departLane="0" departPos="3.4345" departSpeed="8.3737" speedFactor="0.8950" arrival="251.00">
        <route edges="E_in W_out"/>
    </vehicle>

    <vehicle id="flow_4_phase1_N_uturn.3" type="bus" depart="199.00" departLane="1" departPos="98.8542" departSpeed="8.0088" speedFactor="0.9700" arrival="258.00">
        <route edges="N_in N_out"/>
    </vehicle>

    <vehicle id="flow_5_phase1_S_straight.14" type="car" depart="186.00" departLane="1" departPos="12.5958" departSpeed="1.9481" speedFactor="0.8047" arrival="259.00">
        <route edges="N_in S_out"/>
    </vehicle>

    <vehicle id="flow_3_phase1_N_right.6" type="truck" depart="206.00" departLane="0" departPos="13.6209" departSpeed="11.0045" speedFactor="0.9035" arrival="260.00">
        <route edges="S_in E_out"/>
    </vehicle>

    <vehicle id="flow_5_phase1_S_straight.16" type="moto" depart="212.00" departLane="0" departPos="71.4623" departSpeed="8.7635" speedFactor="1.2172" arrival="260.00">
        <route edges="N_in S_out"/>
    </vehicle>

    <vehicle id="flow_7_phase1_S_right.7" type="moto" depart="228.00" departLane="0" departPos="141.6365" departSpeed="10.4808" speedFactor="0.9986" arrival="260.00">
        <route edges="S_in E_out"/>
    </vehicle>

    <vehicle id="flow_5_phase1_S_straight.17" type="moto" depart="225.00" departLane="0" departPos="25.1596" departSpeed="1.5931" speedFactor="0.8818" arrival="262.00">
        <route edges="N_in S_out"/>
    </vehicle>

    <vehicle id="flow_5_phase1_S_straight.18" type="car" depart="239.00" departLane="0" departPos="103.6317" departSpeed="8.3623" speedFactor="1.1422" arrival="262.00">
        <route edges="N_in S_out"/>
    </vehicle>

    <vehicle id="flow_14_phase1_W_left.6" type="moto" depart="207.00" departLane="1" departPos="154.8347" departSpeed="9.8909" speedFactor="0.8697" arrival="263.00">
        <route edges="N_in N_out"/>
    </vehicle>

    <vehicle id="flow_6_phase1_S_left.6" type="bus" depart="201.00" departLane="0" departPos="157.8672" departSpeed="0.3332" speedFactor="1.0167" arrival="271.00">
        <route edges="S_in W_out"/>
    </vehicle>

    <vehicle id="flow_15_phase1_W_right.7" type="moto" depart="230.00" departLane="0" departPos="51.1674" departSpeed="7.0758" speedFactor="0.8417" arrival="271.00">
        <route edges="W_in S_out"/>
    </vehicle>

    <vehicle id="flow_2_phase1_N_left.7" type="car" depart="229.00" departLane="1" departPos="2.3297" departSpeed="8.3895" speedFactor="1.0423" arrival="272.00">
        <route edges="W_in S_out"/>
    </vehicle>

    <vehicle id="flow_9_phase1_E_straight.17" type="moto" depart="219.00" departLane="1" departPos="6.1547" departSpeed="6.1698" speedFactor="1.1149" arrival="275.00">