<?xml version="1.0" encoding="UTF-8"?>

<!-- generated on 2025-12-08 21:40:08 by Eclipse SUMO sumo Version 1.18.0
<configuration xmlns:xsi="http://www.w3.org/2001/XMLSchema-instance" xsi:noNamespaceSchemaLocation="http://sumo.dlr.de/xsd/sumoConfiguration.xsd">

    <input>
        <net-file value="nets/60p2k/net.net.xml"/>
        <route-files value="nets/60p2k/route_temp_281_124147880884016_33742306.rou.xml"/>
    </input>

    <output>
        <summary-output value="result_ddqn_1.9_0.4/summary_ep_3.xml"/>
        <tripinfo-output value="result_ddqn_1.9_0.4/tripinfo_ep_3.xml"/>
        <vehroute-output value="result_ddqn_1.9_0.4/vehroute_ep_3.xml"/>
    </output>

    <time>
        <begin value="0"/>
    </time>

    <report>
        <verbose value="true"/>
        <no-warnings value="true"/>
        <no-step-log value="true"/>
    </report>

    <traci_server>
        <remote-port value="44093"/>
    </traci_server>

    <gui_only>
        <gui-settings-file value="nets/60p2k/gui-settings.xml"/>
        <quit-on-end value="true"/>
    </gui_only>

</configuration>
-->

<routes xmlns:xsi="http://www.w3.org/2001/XMLSchema-instance" xsi:noNamespaceSchemaLocation="http://sumo.dlr.de/xsd/routes_file.xsd">
    <vehicle id="flow_5_phase1_S_straight.0" type="moto" depart="0.00" departLane="1" departPos="107.3659" departSpeed="7.2113" speedFactor="1.1475" arrival="21.00">
        <route edges="S_in N_out"/>
    </vehicle>

    <vehicle id="flow_3_phase1_N_right.0" type="car" depart="0.00" departLane="0" departPos="103.3842" departSpeed="3.7523" speedFactor="1.0907" arrival="24.00">
        <route edges="N_in W_out"/>
    </vehicle>

    <vehicle id="flow_6_phase1_S_left.0" type="moto" depart="0.00" departLane="1" departPos="166.0107" departSpeed="0.7376" speedFactor="0.8806" arrival="25.00">
        <route edges="S_in W_out"/>
    </vehicle>

    <vehicle id="flow_4_phase1_N_uturn.0" type="car" depart="0.00" departLane="1" departPos="127.6015" departSpeed="0.0774" speedFactor="0.9228" arrival="27.00">
        <route edges="N_in E_out"/>
    </vehicle>

    <vehicle id="flow_14_phase1_W_left.0" type="moto" depart="0.00" departLane="1" departPos="50.0682" departSpeed="13.5426" speedFactor="1.0101" arrival="28.00">
        <route edges="S_in E_out"/>
    </vehicle>

    <vehicle id="flow_2_phase1_N_left.0" type="moto" depart="0.00" departLane="1" departPos="8.2688" departSpeed="8.3291" speedFactor="1.0157" arrival="31.00">
        <route edges="N_in E_out"/>
    </vehicle>

    <vehicle id="flow_12_phase1_E_uturn.0" type="moto" depart="0.00" departLane="0" departPos="129.8894" departSpeed="13.7593" speedFactor="1.0348" arrival="36.00">
        <route edges="E_in E_out"/>
    </vehicle>

    <vehicle id="flow_16_phase1_W_uturn.0" type="moto" depart="0.00" departLane="0" departPos="126.6766" departSpeed="11.7148" speedFactor="1.0383" arrival="37.00">
        <route edges="W_in W_out"/>
    </vehicle>

    <vehicle id="flow_15_phase1_W_right.0" type="moto" depart="0.00" departLane="1" departPos="108.377" departSpeed="1.9778" speedFactor="0.8472" arrival="39.00">
        <route edges="W_in S_out"/>
    </vehicle>

    <vehicle id="flow_9_phase1_E_straight.1" type="moto" depart="13.00" departLane="0" departPos="131.129" departSpeed="9.5396" speedFactor="1.1582" arrival="40.00">
        <route edges="E_in W_out"/>
    </vehicle>

    <vehicle id="flow_9_phase1_E_straight.0" type="truck" depart="0.00" departLane="0" departPos="168.2937" departSpeed="9.8263" speedFactor="0.8990" arrival="41.00">
        <route edges="E_in W_out"/>
    </vehicle>

    <vehicle id="flow_13_phase1_W_straight.0" type="container" depart="0.00" departLane="0" departPos="23.7725" departSpeed="1.4795" speedFactor="0.8227" arrival="42.00">
        <route edges="W_in E_out"/>
    </vehicle>

    <vehicle id="flow_11_phase1_E_right.0" type="bus" depart="0.00" departLane="1" departPos="144.9496" departSpeed="4.0187" speedFactor="0.9581" arrival="45.00">
        <route edges="W_in W_out"/>
    </vehicle>

    <vehicle id="flow_10_phase1_E_left.0" type="truck" depart="0.00" departLane="0" departPos="44.8816" departSpeed="7.6878" speedFactor="1.0161" arrival="49.00">
        <route edges="E_in S_out"/>
    </vehicle>

    <vehicle id="flow_5_phase1_S_straight.1" type="moto" depart="14.00" departLane="1" departPos="31.9285" departSpeed="9.2811" speedFactor="1.1853" arrival="49.00">
        <route edges="S_in N_out"/>
    </vehicle>

    <vehicle id="flow_3_phase1_N_right.1" type="moto" depart="35.00" departLane="0" departPos="166.0021" departSpeed="1.2818" speedFactor="0.8806" arrival="58.00">
        <route edges="N_in W_out"/>
    </vehicle>

    <vehicle id="flow_7_phase1_S_right.0" type="container" depart="0.00" departLane="0" departPos="8.759" departSpeed="8.0654" speedFactor="0.8488" arrival="59.00">
        <route edges="S_in E_out"/>
    </vehicle>

    <vehicle id="flow_13_phase1_W_straight.1" type="car" depart="14.00" departLane="1" departPos="121.6549" departSpeed="2.8591" speedFactor="1.1218" arrival="61.00">
        <route edges="W_in E_out"/>
    </vehicle>

    <vehicle id="flow_9_phase1_E_straight.2" type="moto" depart="26.00" departLane="1" departPos="52.8684" departSpeed="0.3845" speedFactor="0.9938" arrival="62.00">
        <route edges="E_in W_out"/>
    </vehicle>

    <vehicle id="flow_15_phase1_W_right.1" type="moto" depart="33.00" departLane="1" departPos="97.231" departSpeed="5.8444" speedFactor="1.0788" arrival="62.00">
        <route edges="W_in S_out"/>
    </vehicle>

    <vehicle id="flow_14_phase1_W_left.1" type="container" depart="35.00" departLane="0" departPos="134.7579" departSpeed="11.7583" speedFactor="0.9146" arrival="62.00">
        <route edges="S_in E_out"/>
    </vehicle>

    <vehicle id="flow_8_phase1_S_uturn.0" type="moto" depart="0.00" departLane="0" departPos="120.1072" departSpeed="4.4837" speedFactor="1.0505" arrival="65.00">
        <route edges="W_in N_out"/>
    </vehicle>

    <vehicle id="flow_13_phase1_W_straight.3" type="car" depart="41.00" departLane="0" departPos="148.0778" departSpeed="9.6399" speedFactor="1.0479" arrival="65.00">
        <route edges="W_in E_out"/>
    </vehicle>

    <vehicle id="flow_13_phase1_W_straight.2" type="bus" depart="27.00" departLane="1" departPos="59.5081" departSpeed="13.3195" speedFactor="0.9657" arrival="70.00">
        <route edges="W_in E_out"/>
    </vehicle>

    <vehicle id="flow_5_phase1_S_straight.2" type="moto" depart="27.00" departLane="1" departPos="12.6982" departSpeed="12.4143" speedFactor="0.9623" arrival="76.00">
        <route edges="S_in N_out"/>
    </vehicle>

    <vehicle id="flow_6_phase1_S_left.1" type="moto" depart="34.00" departLane="1" departPos="79.0964" departSpeed="8.5001" speedFactor="1.0453" arrival="76.00">
        <route edges="S_in W_out"/>
    </vehicle>

    <vehicle id="flow_5_phase1_S_straight.3" type="moto" depart="40.00" departLane="1" departPos="77.9408" departSpeed="4.4335" speedFactor="1.0764" arrival="77.00">
        <route edges="S_in N_out"/>
    </vehicle>

    <vehicle id="flow_1_phase1_N_straight.0" type="bus" depart="0.00" departLane="0" departPos="8.6229" departSpeed="8.5053" speedFactor="0.8588" arrival="82.00">
        <route edges="E_in E_out"/>
    </vehicle>

    <vehicle id="flow_7_phase1_S_right.1" type="container" depart="33.00" departLane="1" departPos="66.71" departSpeed="7.8717" speedFactor="0.7845" arrival="83.00">
        <route edges="S_in E_out"/>
    </vehicle>

    <vehicle id="flow_5_phase1_S_straight.4" type="container" depart="53.00" departLane="0" departPos="167.2268" departSpeed="1.9044" speedFactor="0.9706" arrival="87.00">
        <route edges="S_in N_out"/>
    </vehicle>

    <vehicle id="flow_2_phase1_N_left.1" type="moto" depart="33.00" departLane="0" departPos="8.8817" departSpeed="2.8196" speedFactor="1.1228" arrival="89.00">
        <route edges="N_in E_out"/>
    </vehicle>

    <vehicle id="flow_11_phase1_E_right.1" type="moto" depart="33.00" departLane="1" departPos="80.2425" departSpeed="3.0596" speedFactor="1.0365" arrival="89.00">
        <route edges="W_in W_out"/>
    </vehicle>

    <vehicle id="flow_13_phase1_W_straight.5" type="moto" depart="67.00" departLane="1" departPos="177.4982" departSpeed="6.3498" speedFactor="1.1413" arrival="90.00">
        <route edges="W_in E_out"/>
    </vehicle>

    <vehicle id="flow_11_phase1_E_right.2" type="moto" depart="65.00" departLane="1" departPos="129.0888" departSpeed="6.0297" speedFactor="1.1432" arrival="92.00">
        <route edges="W_in W_out"/>
    </vehicle>

    <vehicle id="flow_1_phase1_N_straight.1" type="moto" depart="14.00" departLane="1" departPos="58.3562" departSpeed="11.6446" speedFactor="0.8727" arrival="97.00">
        <route edges="E_in E_out"/>
    </vehicle>

    <vehicle id="flow_16_phase1_W_uturn.1" type="moto" depart="67.00" departLane="1" departPos="63.1043" departSpeed="4.2132" speedFactor="1.0390" arrival="97.00">
        <route edges="W_in W_out"/>
    </vehicle>

    <vehicle id="flow_9_phase1_E_straight.3" type="bus" depart="39.00" departLane="1" departPos="108.7646" departSpeed="10.3425" speedFactor="0.8515" arrival="98.00">
        <route edges="E_in W_out"/>
    </vehicle>

    <vehicle id="flow_1_phase1_N_straight.2" type="moto" depart="28.00" departLane="1" departPos="107.5311" departSpeed="1.1094" speedFactor="0.9279" arrival="99.00">
        <route edges="E_in E_out"/>
    </vehicle>

    <vehicle id="flow_3_phase1_N_right.2" type="moto" depart="69.00" departLane="0" departPos="69.4902" departSpeed="6.8245" speedFactor="1.1043" arrival="100.00">
        <route edges="N_in W_out"/>
    </vehicle>

    <vehicle id="flow_7_phase1_S_right.2" type="moto" depart="65.00" departLane="1" departPos="65.3279" departSpeed="12.9273" speedFactor="1.0283" arrival="101.00">
        <route edges="S_in E_out"/>
    </vehicle>

    <vehicle id="flow_5_phase1_S_straight.5" type="moto" depart="67.00" departLane="1" departPos="174.172" departSpeed="4.9829" speedFactor="1.0265" arrival="101.00">
        <route edges="S_in N_out"/>
    </vehicle>

    <vehicle id="flow_14_phase1_W_left.2" type="car" depart="69.00" departLane="1" departPos="24.5526" departSpeed="1.9663" speedFactor="0.8975" arrival="105.00">
        <route edges="S_in E_out"/>
    </vehicle>

    <vehicle id="flow_4_phase1_N_uturn.1" type="moto" depart="67.00" departLane="0" departPos="64.2471" departSpeed="6.1278" speedFactor="0.9374" arrival="106.00">
        <route edges="N_in E_out"/>
    </vehicle>

    <vehicle id="flow_6_phase1_S_left.2" type="truck" depart="67.00" departLane="1" departPos="78.0885" departSpeed="6.0329" speedFactor="0.8923" arrival="107.00">
        <route edges="S_in W_out"/>
    </vehicle>

    <vehicle id="flow_5_phase1_S_straight.6" type="moto" depart="80.00" departLane="1" departPos="37.0366" departSpeed="3.4769" speedFactor="1.0983" arrival="107.00">
        <route edges="S_in N_out"/>
    </vehicle>

    <vehicle id="flow_2_phase1_N_left.2" type="emergency" depart="66.00" departLane="1" departPos="19.5053" departSpeed="8.7576" speedFactor="1.0989" arrival="111.00">
        <route edges="N_in E_out"/>
    </vehicle>

    <vehicle id="flow_9_phase1_E_straight.4" type="bus" depart="52.00" departLane="1" departPos="23.5668" departSpeed="9.4296" speedFactor="0.9525" arrival="119.00">
        <route edges="E_in W_out"/>
    </vehicle>

    <vehicle id="flow_13_phase1_W_straight.4" type="bus" depart="54.00" departLane="0" departPos="8.0759" departSpeed="5.7989" speedFactor="0.8691" arrival="119.00">
        <route edges="W_in E_out"/>
    </vehicle>

    <vehicle id="flow_9_phase1_E_straight.6" type="moto" depart="78.00" departLane="0" departPos="18.5245" departSpeed="1.6262" speedFactor="1.0203" arrival="120.00">
        <route edges="E_in W_out"/>
    </vehicle>

    <vehicle id="flow_9_phase1_E_straight.5" type="moto" depart="65.00" departLane="1" departPos="111.6918" departSpeed="5.9674" speedFactor="0.9964" arrival="121.00">
        <route edges="E_in W_out"/>
    </vehicle>

    <vehicle id="flow_5_phase1_S_straight.8" type="emergency" depart="106.00" departLane="0" departPos="157.0309" departSpeed="8.6218" speedFactor="1.1380" arrival="127.00">
        <route edges="S_in N_out"/>
    </vehicle>

    <vehicle id="flow_10_phase1_E_left.1" type="truck" depart="34.00" departLane="0" departPos="4.5211" departSpeed="10.4074" speedFactor="0.7665" arrival="131.00">
        <route edges="E_in S_out"/>
    </vehicle>

    <vehicle id="flow_7_phase1_S_right.3" type="moto" depart="98.00" departLane="1" departPos="86.4019" departSpeed="1.7733" speedFactor="1.0682" arrival="131.00">
        <route edges="S_in E_out"/>
    </vehicle>

    <vehicle id="flow_6_phase1_S_left.3" type="car" depart="101.00" departLane="1" departPos="2.2093" departSpeed="8.0575" speedFactor="1.0972" arrival="132.00">
        <route edges="S_in W_out"/>
    </vehicle>

    <vehicle id="flow_5_phase1_S_straight.7" type="bus" depart="93.00" departLane="1" departPos="150.3544" departSpeed="7.1447" speedFactor="0.9040" arrival="133.00">
        <route edges="S_in N_out"/>
    </vehicle>

    <vehicle id="flow_3_phase1_N_right.3" type="moto" depart="103.00" departLane="1" departPos="42.0768" departSpeed="12.0971" speedFactor="0.9618" arrival="133.00">
        <route edges="N_in W_out"/>
    </vehicle>

    <vehicle id="flow_14_phase1_W_left.3" type="moto" depart="104.00" departLane="1" departPos="84.7431" departSpeed="3.9944" speedFactor="1.0873" arrival="133.00">
        <route edges="S_in E_out"/>
    </vehicle>

    <vehicle id="flow_2_phase1_N_left.3" type="moto" depart="99.00" departLane="1" departPos="140.1205" departSpeed="9.784" speedFactor="0.8878" arrival="137.00">
        <route edges="N_in E_out"/>
    </vehicle>

    <vehicle id="flow_9_phase1_E_straight.7" type="moto" depart="91.00" departLane="1" departPos="41.8299" departSpeed="13.187" speedFactor="1.0085" arrival="140.00">
        <route edges="E_in W_out"/>
    </vehicle>

    <vehicle id="flow_15_phase1_W_right.2" type="moto" depart="66.00" departLane="1" departPos="65.5698" departSpeed="2.068" speedFactor="0.8882" arrival="141.00">
        <route edges="W_in S_out"/>
    </vehicle>

    <vehicle id="flow_15_phase1_W_right.3" type="moto" depart="99.00" departLane="1" departPos="74.7856" departSpeed="3.0495" speedFactor="1.1705" arrival="142.00">
        <route edges="W_in S_out"/>
    </vehicle>

    <vehicle id="flow_9_phase1_E_straight.8" type="moto" depart="104.00" departLane="0" departPos="35.6434" departSpeed="3.0133" speedFactor="0.9385" arrival="143.00">
        <route edges="E_in W_out"/>
    </vehicle>

    <vehicle id="flow_13_phase1_W_straight.7" type="moto" depart="94.00" departLane="0" departPos="107.9927" departSpeed="0.9409" speedFactor="0.8003" arrival="145.00">
        <route edges="W_in E_out"/>
    </vehicle>

    <vehicle id="flow_13_phase1_W_straight.8" type="moto" depart="108.00" departLane="1" departPos="69.3051" departSpeed="13.5693" speedFactor="1.0413" arrival="147.00">
        <route edges="W_in E_out"/>
    </vehicle>

    <vehicle id="flow_8_phase1_S_uturn.1" type="truck" depart="66.00" departLane="0" departPos="179.131" departSpeed="6.4893" speedFactor="0.9396" arrival="151.00">
        <route edges="W_in N_out"/>
    </vehicle>

    <vehicle id="flow_5_phase1_S_straight.9" type="moto" depart="120.00" departLane="0" departPos="65.0172" departSpeed="3.2312" speedFactor="1.2976" arrival="151.00">
        <route edges="S_in N_out"/>
    </vehicle>

    <vehicle id="flow_13_phase1_W_straight.9" type="moto" depart="121.00" departLane="1" departPos="150.7313" departSpeed="0.4613" speedFactor="0.8391" arrival="151.00">
        <route edges="W_in E_out"/>
    </vehicle>

    <vehicle id="flow_1_phase1_N_straight.4" type="truck" depart="55.00" departLane="0" departPos="160.3044" departSpeed="7.3183" speedFactor="0.9194" arrival="153.00">
        <route edges="E_in E_out"/>
    </vehicle>

    <vehicle id="flow_6_phase1_S_left.4" type="moto" depart="134.00" departLane="1" departPos="169.9316" departSpeed="3.4736" speedFactor="1.0387" arrival="153.00">
        <route edges="S_in W_out"/>
    </vehicle>

    <vehicle id="flow_2_phase1_N_left.4" type="moto" depart="131.00" departLane="1" departPos="123.8246" departSpeed="5.1052" speedFactor="1.1571" arrival="155.00">
        <route edges="N_in E_out"/>
    </vehicle>

    <vehicle id="flow_3_phase1_N_right.4" type="moto" depart="137.00" departLane="1" departPos="181.5712" departSpeed="0.2369" speedFactor="1.0387" arrival="156.00">
        <route edges="N_in W_out"/>
    </vehicle>

    <vehicle id="flow_5_phase1_S_straight.10" type="moto" depart="133.00" departLane="1" departPos="75.2144" departSpeed="6.6948" speedFactor="1.0281" arrival="158.00">
        <route edges="S_in N_out"/>
    </vehicle>

    <vehicle id="flow_7_phase1_S_right.4" type="moto" depart="130.00" departLane="1" departPos="64.7255" departSpeed="5.1608" speedFactor="0.9645" arrival="159.00">
        <route edges="S_in E_out"/>
    </vehicle>

    <vehicle id="flow_9_phase1_E_straight.10" type="moto" depart="129.00" departLane="0" departPos="151.0147" departSpeed="10.9208" speedFactor="1.1157" arrival="165.00">
        <route edges="E_in W_out"/>
    </vehicle>

    <vehicle id="flow_1_phase1_N_straight.3" type="moto" depart="41.00" departLane="0" departPos="19.2493" departSpeed="11.1917" speedFactor="1.2027" arrival="166.00">
        <route edges="E_in E_out"/>
    </vehicle>

    <vehicle id="flow_13_phase1_W_straight.6" type="car" depart="81.00" departLane="1" departPos="47.4954" departSpeed="4.3522" speedFactor="0.9759" arrival="166.00">
        <route edges="W_in E_out"/>
    </vehicle>

    <vehicle id="flow_12_phase1_E_uturn.1" type="moto" depart="66.00" departLane="0" departPos="91.5182" departSpeed="0.1935" speedFactor="0.9517" arrival="170.00">
        <route edges="E_in E_out"/>
    </vehicle>

    <vehicle id="flow_1_phase1_N_straight.7" type="moto" depart="95.00" departLane="0" departPos="140.508" departSpeed="11.0712" speedFactor="1.0626" arrival="171.00">
        <route edges="E_in E_out"/>
    </vehicle>

    <vehicle id="flow_9_phase1_E_straight.9" type="truck" depart="116.00" departLane="1" departPos="5.9732" departSpeed="0.4392" speedFactor="1.0019" arrival="171.00">
        <route edges="E_in W_out"/>
    </vehicle>

    <vehicle id="flow_10_phase1_E_left.2" type="moto" depart="67.00" departLane="1" departPos="74.602" departSpeed="9.9447" speedFactor="1.0668" arrival="173.00">
        <route edges="E_in S_out"/>
    </vehicle>

    <vehicle id="flow_15_phase1_W_right.4" type="bus" depart="132.00" departLane="1" departPos="146.8151" departSpeed="11.5369" speedFactor="0.9032" arrival="173.00">
        <route edges="W_in S_out"/>
    </vehicle>

    <vehicle id="flow_11_phase1_E_right.3" type="moto" depart="98.00" departLane="1" departPos="16.1283" departSpeed="6.8136" speedFactor="0.8330" arrival="175.00">
        <route edges="W_in W_out"/>
    </vehicle>

    <vehicle id="flow_8_phase1_S_uturn.2" type="moto" depart="132.00" departLane="0" departPos="169.4272" departSpeed="11.2239" speedFactor="0.9897" arrival="175.00">
        <route edges="W_in N_out"/>
    </vehicle>

    <vehicle id="flow_16_phase1_W_uturn.2" type="car" depart="133.00" departLane="1" departPos="123.2337" departSpeed="6.5131" speedFactor="0.8850" arrival="178.00">
        <route edges="W_in W_out"/>
    </vehicle>

    <vehicle id="flow_5_phase1_S_straight.11" type="bus" depart="146.00" departLane="0" departPos="27.2886" departSpeed="11.632" speedFactor="0.9784" arrival="180.00">
        <route edges="S_in N_out"/>
    </vehicle>

    <vehicle id="flow_5_phase1_S_straight.12" type="moto" depart="159.00" departLane="1" departPos="113.0073" departSpeed="13.3802" speedFactor="1.0699" arrival="182.00">
        <route edges="S_in N_out"/>
    </vehicle>

    <vehicle id="flow_14_phase1_W_left.4" type="bus" depart="138.00" departLane="0" departPos="14.8665" departSpeed="3.6631" speedFactor="0.8196" arrival="185.00">
        <route edges="S_in E_out"/>
    </vehicle>

    <vehicle id="flow_4_phase1_N_uturn.2" type="car" depart="133.00" departLane="0" departPos="5.0473" departSpeed="11.4527" speedFactor="1.0323" arrival="186.00">
        <route edges="N_in E_out"/>
    </vehicle>

    <vehicle id="flow_2_phase1_N_left.5" type="car" depart="164.00" departLane="1" departPos="184.7809" departSpeed="4.6591" speedFactor="0.8868" arrival="190.00">
        <route edges="N_in E_out"/>
    </vehicle>

    <vehicle id="flow_13_phase1_W_straight.10" type="moto" depart="134.00" departLane="0" departPos="131.4461" departSpeed="13.8182" speedFactor="1.1421" arrival="191.00">
        <route edges="W_in E_out"/>
    </vehicle>

    <vehicle id="flow_13_phase1_W_straight.11" type="moto" depart="148.00" departLane="1" departPos="47.2903" departSpeed="0.8893" speedFactor="1.0140" arrival="194.00">
        <route edges="W_in E_out"/>
    </vehicle>

    <vehicle id="flow_13_phase1_W_straight.12" type="moto" depart="161.00" departLane="0" departPos="72.1694" departSpeed="10.7266" speedFactor="1.1365" arrival="195.00">
        <route edges="W_in E_out"/>
    </vehicle>

    <vehicle id="flow_1_phase1_N_straight.5" type="moto" depart="68.00" departLane="1" departPos="61.3216" departSpeed="1.9226" speedFactor="0.9020" arrival="198.00">
        <route edges="E_in E_out"/>
    </vehicle>

    <vehicle id="flow_15_phase1_W_right.5" type="car" depart="165.00" departLane="1" departPos="100.5913" departSpeed="11.8266" speedFactor="0.9653" arrival="198.00">
        <route edges="W_in S_out"/>
    </vehicle>

    <vehicle id="flow_11_phase1_E_right.4" type="container" depart="130.00" departLane="0" departPos="29.1188" departSpeed="4.1084" speedFactor="1.0240" arrival="200.00">
        <route edges="W_in W_out"/>
    </vehicle>

    <vehicle id="flow_1_phase1_N_straight.6" type="car" depart="82.00" departLane="0" departPos="36.1232" departSpeed="6.3435" speedFactor="0.9797" arrival="201.00">
        <route edges="E_in E_out"/>
    </vehicle>

    <vehicle id="flow_11_phase1_E_right.5" type="moto" depart="163.00" departLane="0" departPos="158.7036" departSpeed="3.2437" speedFactor="1.2552" arrival="201.00">
        <route edges="W_in W_out"/>
    </vehicle>

    <vehicle id="flow_3_phase1_N_right.5" type="moto" depart="171.00" departLane="0" departPos="187.7648" departSpeed="1.8342" speedFactor="0.9059" arrival="206.00">
        <route edges="N_in W_out"/>
    </vehicle>

    <vehicle id="flow_5_phase1_S_straight.13" type="moto" depart="172.00" departLane="0" departPos="116.7981" departSpeed="8.2771" speedFactor="1.2148" arrival="208.00">
        <route edges="S_in N_out"/>
    </vehicle>

    <vehicle id="flow_6_phase1_S_left.5" type="bus" depart="168.00" departLane="0" departPos="68.0447" departSpeed="7.1044" speedFactor="0.9819" arrival="209.00">
        <route edges="S_in W_out"/>
    </vehicle>

    <vehicle id="flow_14_phase1_W_left.5" type="bus" depart="173.00" departLane="1" departPos="165.1863" departSpeed="7.1748" speedFactor="0.9554" arrival="210.00">
        <route edges="S_in E_out"/>
    </vehicle>

    <vehicle id="flow_7_phase1_S_right.5" type="truck" depart="163.00" departLane="0" departPos="15.88" departSpeed="1.6468" speedFactor="1.0532" arrival="213.00">
        <route edges="S_in E_out"/>
    </vehicle>

    <vehicle id="flow_5_phase1_S_straight.14" type="car" depart="186.00" departLane="0" departPos="122.1483" departSpeed="0.5867" speedFactor="0.8047" arrival="215.00">
        <route edges="S_in N_out"/>
    </vehicle>

    <vehicle id="flow_13_phase1_W_straight.14" type="moto" depart="188.00" departLane="0" departPos="100.2317" departSpeed="12.0115" speedFactor="1.1523" arrival="217.00">
        <route edges="W_in E_out"/>
    </vehicle>

    <vehicle id="flow_10_phase1_E_left.5" type="moto" depart="168.00" departLane="0" departPos="184.0677" departSpeed="5.0157" speedFactor="1.0856" arrival="220.00">
        <route edges="E_in S_out"/>
    </vehicle>

    <vehicle id="flow_13_phase1_W_straight.13" type="moto" depart="174.00" departLane="1" departPos="160.2411" departSpeed="4.0792" speedFactor="0.8917" arrival="220.00">
        <route edges="W_in E_out"/>
    </vehicle>

    <vehicle id="flow_15_phase1_W_right.6" type="car" depart="198.00" departLane="1" departPos="163.2859" departSpeed="1.4497" speedFactor="0.9559" arrival="221.00">
        <route edges="W_in S_out"/>
    </vehicle>

    <vehicle id="flow_16_phase1_W_uturn.3" type="bus" depart="199.00" departLane="1" departPos="175.2569" departSpeed="5.7202" speedFactor="0.9363" arrival="223.00">
        <route edges="W_in W_out"/>
    </vehicle>

    <vehicle id="flow_10_phase1_E_left.3" type="truck" depart="101.00" departLane="1" departPos="103.4641" departSpeed="3.4103" speedFactor="1.0651" arrival="226.00">
        <route edges="E_in S_out"/>
    </vehicle>

    <vehicle id="flow_8_phase1_S_uturn.3" type="car" depart="198.00" departLane="0" departPos="116.1788" departSpeed="1.596" speedFactor="0.8963" arrival="227.00">
        <route edges="W_in N_out"/>
    </vehicle>

    <vehicle id="flow_7_phase1_S_right.6" type="car" depart="195.00" departLane="1" departPos="80.6527" departSpeed="2.3529" speedFactor="1.1275" arrival="230.00">
        <route edges="S_in E_out"/>
    </vehicle>

    <vehicle id="flow_3_phase1_N_right.6" type="truck" depart="206.00" departLane="0" departPos="111.5109" departSpeed="5.5776" speedFactor="0.9035" arrival="235.00">
        <route edges="N_in W_out"/>
    </vehicle>

    <vehicle id="flow_14_phase1_W_left.6" type="moto" depart="207.00" departLane="1" departPos="98.8542" departSpeed="7.1806" speedFactor="0.8697" arrival="235.00">
        <route edges="S_in E_out"/>
    </vehicle>

    <vehicle id="flow_6_phase1_S_left.6" type="bus" depart="201.00" departLane="0" departPos="79.4706" departSpeed="9.4392" speedFactor="1.0167" arrival="239.00">
        <route edges="S_in W_out"/>
    </vehicle>

    <vehicle id="flow_5_phase1_S_straight.15" type="container" depart="199.00" departLane="1" departPos="176.9698" departSpeed="6.7097" speedFactor="0.9628" arrival="240.00">
        <route edges="S_in N_out"/>
    </vehicle>

    <vehicle id="flow_11_phase1_E_right.6" type="car" depart="195.00" departLane="0" departPos="15.6422" departSpeed="13.566" speedFactor="0.9838" arrival="243.00">
        <route edges="W_in W_out"/>
    </vehicle>

    <vehicle id="flow_2_phase1_N_left.6" type="moto" depart="197.00" departLane="0" departPos="175.8273" departSpeed="1.4004" speedFactor="0.8416" arrival="243.00">
        <route edges="N_in E_out"/>
    </vehicle>

    <vehicle id="flow_13_phase1_W_straight.15" type="car" depart="201.00" departLane="1" departPos="55.0563" departSpeed="2.7725" speedFactor="1.0262" arrival="244.00">
        <route edges="W_in E_out"/>
    </vehicle>

    <vehicle id="flow_4_phase1_N_uturn.3" type="bus" depart="199.00" departLane="1" departPos="46.7196" departSpeed="2.5662" speedFactor="0.9700" arrival="246.00">
        <route edges="N_in E_out"/>
    </vehicle>

    <vehicle id="flow_13_phase1_W_straight.16" type="truck" depart="215.00" departLane="1" departPos="37.6432" departSpeed="6.5614" speedFactor="0.9269" arrival="249.00">
        <route edges="W_in E_out"/>
    </vehicle>

    <vehicle id="flow_13_phase1_W_straight.17" type="truck" depart="228.00" departLane="0" departPos="166.1364" departSpeed="9.6622" speedFactor="0.8482" arrival="249.00">
        <route edges="W_in E_out"/>
    </vehicle>

    <vehicle id="flow_11_phase1_E_right.7" type="moto" depart="228.00" departLane="1" departPos="119.7704" departSpeed="11.3487" speedFactor="1.1783" arrival="251.00">
        <route edges="W_in W_out"/>
    </vehicle>

    <vehicle id="flow_1_phase1_N_straight.10" type="bus" depart="136.00" departLane="0" departPos="149.7816" departSpeed="4.7007" speedFactor="1.0325" arrival="255.00">
        <route edges="E_in E_out"/>
    </vehicle>

    <vehicle id="flow_5_phase1_S_straight.16" type="moto" depart="212.00" departLane="1" departPos="64.2415" departSpeed="13.8392" speedFactor="1.2172" arrival="256.00">
        <route edges="S_in N_out"/>
    </vehicle>

    <vehicle id="flow_5_phase1_S_straight.17" type="moto" depart="225.00" departLane="0" departPos="121.3489" departSpeed="6.8748" speedFactor="0.8818" arrival="259.00">
        <route edges="S_in N_out"/>
    </vehicle>

    <vehicle id="flow_7_phase1_S_right.7" type="moto" depart="228.00" departLane="1" departPos="26.1165" departSpeed="9.592" speedFactor="0.9986" arrival="259.00">
        <route edges="S_in E_out"/>
    </vehicle>

    <vehicle id="flow_5_phase1_S_straight.18" type="car" depart="239.00" departLane="1" departPos="123.0606" departSpeed="6.3208" speedFactor="1.1422" arrival="259.00">
        <route edges="S_in N_out"/>
    </vehicle>

    <vehicle id="flow_14_phase1_W_left.7" type="moto" depart="242.00" departLane="1" departPos="141.6365" departSpeed="11.0082" speedFactor="1.0438" arrival="263.00">
        <route edges="S_in E_out"/>
    </vehicle>

    <vehicle id="flow_2_phase1_N_left.7" type="car" depart="229.00" departLane="1" departPos="127.6195" departSpeed="1.8581" speedFactor="1.0423" arrival="265.00">
        <route edges="N_in E_out"/>
    </vehicle>

    <vehicle id="flow_9_phase1_E_straight.11" type="moto" depart="142.00" departLane="1" departPos="1.4852" departSpeed="5.0672" speedFactor="1.0448" arrival="270.00">
        <route edges="E_in W_out"/>
    </vehicle>

    <vehicle id="flow_13_phase1_W_straight.18" type="moto" depart="241.00" departLane="1" departPos="135.7938" departSpeed="1.9603" speedFactor="1.0628" arrival="270.00">
        <route edges="W_in E_out"/>
    </vehicle>
