<?xml version="1.0" encoding="UTF-8"?>

<!-- generated on 2025-12-08 21:44:39 by Eclipse SUMO sumo Version 1.18.0
<configuration xmlns:xsi="http://www.w3.org/2001/XMLSchema-instance" xsi:noNamespaceSchemaLocation="http://sumo.dlr.de/xsd/sumoConfiguration.xsd">

    <input>
        <net-file value="nets/60p2k/net.net.xml"/>
        <route-files value="nets/60p2k/route_temp_281_124147880884016_33742306.rou.xml"/>
    </input>

    <output>
        <summary-output value="result_ddqn_1.9_0.4/summary_ep_13.xml"/>
        <tripinfo-output value="result_ddqn_1.9_0.4/tripinfo_ep_13.xml"/>
        <vehroute-output value="result_ddqn_1.9_0.4/vehroute_ep_13.xml"/>
    </output>

    <time>
        <begin value="0"/>
    </time>

    <report>
        <verbose value="true"/>
        <no-warnings value="true"/>
        <no-step-log value="true"/>
    </report>

    <traci_server>
        <remote-port value="47237"/>
    </traci_server>

    <gui_only>
        <gui-settings-file value="nets/60p2k/gui-settings.xml"/>
        <quit-on-end value="true"/>
    </gui_only>

</configuration>
-->

<routes xmlns:xsi="http://www.w3.org/2001/XMLSchema-instance" xsi:noNamespaceSchemaLocation="http://sumo.dlr.de/xsd/routes_file.xsd">
    <vehicle id="flow_5_phase1_S_straight.0" type="moto" depart="0.00" departLane="1" departPos="107.3659" departSpeed="7.2113" speedFactor="1.1475" arrival="21.00">
        <route edges="S_in N_out"/>
    </vehicle>

    <vehicle id="flow_6_phase1_S_left.0" type="moto" depart="0.00" departLane="1" departPos="166.0107" departSpeed="0.7376" speedFactor="0.8806" arrival="25.00">
        <route edges="S_in W_out"/>
    </vehicle>

    <vehicle id="flow_4_phase1_N_uturn.0" type="car" depart="0.00" departLane="1" departPos="127.6015" departSpeed="0.0774" speedFactor="0.9228" arrival="29.00">
        <route edges="N_in N_out"/>
    </vehicle>

    <vehicle id="flow_12_phase1_E_uturn.0" type="moto" depart="0.00" departLane="1" departPos="129.8894" departSpeed="0.429" speedFactor="1.0348" arrival="35.00">
        <route edges="W_in S_out"/>
    </vehicle>

    <vehicle id="flow_16_phase1_W_uturn.0" type="moto" depart="0.00" departLane="0" departPos="126.6766" departSpeed="11.7148" speedFactor="1.0383" arrival="35.00">
        <route edges="W_in W_out"/>
    </vehicle>

    <vehicle id="flow_3_phase1_N_right.0" type="car" depart="0.00" departLane="0" departPos="103.3842" departSpeed="3.7523" speedFactor="1.0907" arrival="37.00">
        <route edges="W_in E_out"/>
    </vehicle>

    <vehicle id="flow_7_phase1_S_right.0" type="container" depart="0.00" departLane="0" departPos="97.2584" departSpeed="8.0654" speedFactor="0.8488" arrival="37.00">
        <route edges="N_in N_out"/>
    </vehicle>

    <vehicle id="flow_8_phase1_S_uturn.0" type="moto" depart="0.00" departLane="0" departPos="178.0418" departSpeed="8.0286" speedFactor="1.0505" arrival="39.00">
        <route edges="E_in E_out"/>
    </vehicle>

    <vehicle id="flow_11_phase1_E_right.0" type="bus" depart="0.00" departLane="1" departPos="30.1666" departSpeed="10.1813" speedFactor="0.9581" arrival="40.00">
        <route edges="E_in N_out"/>
    </vehicle>

    <vehicle id="flow_9_phase1_E_straight.0" type="truck" depart="0.00" departLane="1" departPos="75.1912" departSpeed="11.0919" speedFactor="0.8990" arrival="42.00">
        <route edges="W_in N_out"/>
    </vehicle>

    <vehicle id="flow_13_phase1_W_straight.1" type="car" depart="14.00" departLane="1" departPos="121.6549" departSpeed="2.8591" speedFactor="1.1218" arrival="42.00">
        <route edges="W_in E_out"/>
    </vehicle>

    <vehicle id="flow_15_phase1_W_right.0" type="moto" depart="0.00" departLane="1" departPos="108.377" departSpeed="1.9778" speedFactor="0.8472" arrival="43.00">
        <route edges="W_in S_out"/>
    </vehicle>

    <vehicle id="flow_9_phase1_E_straight.1" type="moto" depart="13.00" departLane="0" departPos="131.129" departSpeed="9.5396" speedFactor="1.1582" arrival="44.00">
        <route edges="W_in N_out"/>
    </vehicle>

    <vehicle id="flow_13_phase1_W_straight.0" type="container" depart="0.00" departLane="0" departPos="23.7725" departSpeed="1.4795" speedFactor="0.8227" arrival="46.00">
        <route edges="W_in E_out"/>
    </vehicle>

    <vehicle id="flow_14_phase1_W_left.0" type="moto" depart="0.00" departLane="1" departPos="50.0682" departSpeed="13.5426" speedFactor="1.0101" arrival="48.00">
        <route edges="E_in S_out"/>
    </vehicle>

    <vehicle id="flow_5_phase1_S_straight.1" type="moto" depart="14.00" departLane="1" departPos="31.9285" departSpeed="9.2811" speedFactor="1.1853" arrival="48.00">
        <route edges="S_in N_out"/>
    </vehicle>

    <vehicle id="flow_2_phase1_N_left.0" type="moto" depart="0.00" departLane="1" departPos="8.2688" departSpeed="8.3291" speedFactor="1.0157" arrival="54.00">
        <route edges="N_in E_out"/>
    </vehicle>

    <vehicle id="flow_1_phase1_N_straight.0" type="bus" depart="0.00" departLane="0" departPos="8.6229" departSpeed="8.5053" speedFactor="0.8588" arrival="56.00">
        <route edges="N_in S_out"/>
    </vehicle>

    <vehicle id="flow_1_phase1_N_straight.1" type="moto" depart="14.00" departLane="1" departPos="58.3562" departSpeed="11.6446" speedFactor="0.8727" arrival="57.00">
        <route edges="N_in S_out"/>
    </vehicle>

    <vehicle id="flow_5_phase1_S_straight.2" type="moto" depart="27.00" departLane="1" departPos="12.6982" departSpeed="12.4143" speedFactor="0.9623" arrival="58.00">
        <route edges="S_in N_out"/>
    </vehicle>

    <vehicle id="flow_15_phase1_W_right.1" type="moto" depart="33.00" departLane="0" departPos="156.5209" departSpeed="7.6899" speedFactor="1.0788" arrival="60.00">
        <route edges="W_in S_out"/>
    </vehicle>

    <vehicle id="flow_2_phase1_N_left.1" type="moto" depart="33.00" departLane="0" departPos="136.8677" departSpeed="1.2485" speedFactor="1.1228" arrival="61.00">
        <route edges="N_in E_out"/>
    </vehicle>

    <vehicle id="flow_11_phase1_E_right.1" type="moto" depart="33.00" departLane="1" departPos="116.6259" departSpeed="6.0975" speedFactor="1.0365" arrival="61.00">
        <route edges="E_in N_out"/>
    </vehicle>

    <vehicle id="flow_9_phase1_E_straight.2" type="moto" depart="26.00" departLane="1" departPos="52.8684" departSpeed="0.3845" speedFactor="0.9938" arrival="65.00">
        <route edges="W_in N_out"/>
    </vehicle>

    <vehicle id="flow_3_phase1_N_right.1" type="moto" depart="35.00" departLane="1" departPos="175.3621" departSpeed="9.2456" speedFactor="0.8806" arrival="65.00">
        <route edges="W_in E_out"/>
    </vehicle>

    <vehicle id="flow_13_phase1_W_straight.3" type="car" depart="41.00" departLane="1" departPos="135.0364" departSpeed="4.096" speedFactor="1.0479" arrival="65.00">
        <route edges="W_in E_out"/>
    </vehicle>

    <vehicle id="flow_13_phase1_W_straight.2" type="bus" depart="27.00" departLane="1" departPos="16.309" departSpeed="12.6765" speedFactor="0.9657" arrival="69.00">
        <route edges="W_in E_out"/>
    </vehicle>

    <vehicle id="flow_9_phase1_E_straight.3" type="bus" depart="39.00" departLane="0" departPos="56.1823" departSpeed="6.7897" speedFactor="0.8515" arrival="73.00">
        <route edges="W_in N_out"/>
    </vehicle>

    <vehicle id="flow_5_phase1_S_straight.3" type="moto" depart="40.00" departLane="0" departPos="132.6219" departSpeed="5.13" speedFactor="1.0764" arrival="75.00">
        <route edges="S_in N_out"/>
    </vehicle>

    <vehicle id="flow_10_phase1_E_left.0" type="truck" depart="0.00" departLane="0" departPos="6.1463" departSpeed="3.3433" speedFactor="1.0161" arrival="76.00">
        <route edges="E_in S_out"/>
    </vehicle>

    <vehicle id="flow_1_phase1_N_straight.2" type="moto" depart="28.00" departLane="0" departPos="34.2537" departSpeed="2.672" speedFactor="0.9279" arrival="76.00">
        <route edges="N_in S_out"/>
    </vehicle>

    <vehicle id="flow_1_phase1_N_straight.3" type="moto" depart="41.00" departLane="0" departPos="125.4807" departSpeed="7.4612" speedFactor="1.2027" arrival="78.00">
        <route edges="N_in S_out"/>
    </vehicle>

    <vehicle id="flow_6_phase1_S_left.1" type="moto" depart="34.00" departLane="0" departPos="69.2372" departSpeed="6.0614" speedFactor="1.0453" arrival="79.00">
        <route edges="S_in W_out"/>
    </vehicle>

    <vehicle id="flow_5_phase1_S_straight.4" type="container" depart="53.00" departLane="0" departPos="91.0122" departSpeed="5.0135" speedFactor="0.9706" arrival="81.00">
        <route edges="S_in N_out"/>
    </vehicle>

    <vehicle id="flow_11_phase1_E_right.2" type="moto" depart="65.00" departLane="1" departPos="112.3734" departSpeed="10.819" speedFactor="1.1432" arrival="86.00">
        <route edges="E_in N_out"/>
    </vehicle>

    <vehicle id="flow_13_phase1_W_straight.5" type="moto" depart="67.00" departLane="1" departPos="92.4194" departSpeed="12.9982" speedFactor="1.1413" arrival="91.00">
        <route edges="W_in E_out"/>
    </vehicle>

    <vehicle id="flow_7_phase1_S_right.1" type="container" depart="33.00" departLane="1" departPos="40.2647" departSpeed="3.1627" speedFactor="0.7845" arrival="92.00">
        <route edges="N_in N_out"/>
    </vehicle>

    <vehicle id="flow_9_phase1_E_straight.4" type="bus" depart="52.00" departLane="0" departPos="26.7631" departSpeed="9.4436" speedFactor="0.9525" arrival="92.00">
        <route edges="W_in N_out"/>
    </vehicle>

    <vehicle id="flow_13_phase1_W_straight.4" type="bus" depart="54.00" departLane="0" departPos="128.0429" departSpeed="4.7194" speedFactor="0.8691" arrival="94.00">
        <route edges="W_in E_out"/>
    </vehicle>

    <vehicle id="flow_12_phase1_E_uturn.1" type="moto" depart="66.00" departLane="1" departPos="168.2148" departSpeed="5.2391" speedFactor="0.9517" arrival="94.00">
        <route edges="W_in S_out"/>
    </vehicle>

    <vehicle id="flow_16_phase1_W_uturn.1" type="moto" depart="67.00" departLane="0" departPos="87.7633" departSpeed="11.3231" speedFactor="1.0390" arrival="96.00">
        <route edges="W_in W_out"/>
    </vehicle>

    <vehicle id="flow_15_phase1_W_right.2" type="moto" depart="66.00" departLane="0" departPos="31.7588" departSpeed="11.1529" speedFactor="0.8882" arrival="99.00">
        <route edges="W_in S_out"/>
    </vehicle>

    <vehicle id="flow_7_phase1_S_right.2" type="moto" depart="65.00" departLane="0" departPos="125.7621" departSpeed="4.9249" speedFactor="1.0283" arrival="102.00">
        <route edges="N_in N_out"/>
    </vehicle>

    <vehicle id="flow_5_phase1_S_straight.5" type="moto" depart="67.00" departLane="1" departPos="124.8757" departSpeed="0.0122" speedFactor="1.0265" arrival="104.00">
        <route edges="S_in N_out"/>
    </vehicle>

    <vehicle id="flow_14_phase1_W_left.1" type="container" depart="35.00" departLane="0" departPos="86.4153" departSpeed="5.4043" speedFactor="0.9146" arrival="106.00">
        <route edges="E_in S_out"/>
    </vehicle>

    <vehicle id="flow_1_phase1_N_straight.4" type="truck" depart="55.00" departLane="1" departPos="29.1154" departSpeed="10.805" speedFactor="0.9194" arrival="106.00">
        <route edges="N_in S_out"/>
    </vehicle>

    <vehicle id="flow_2_phase1_N_left.2" type="emergency" depart="66.00" departLane="1" departPos="121.5569" departSpeed="1.5714" speedFactor="1.0989" arrival="109.00">
        <route edges="N_in E_out"/>
    </vehicle>

    <vehicle id="flow_1_phase1_N_straight.5" type="moto" depart="68.00" departLane="1" departPos="39.3431" departSpeed="4.1729" speedFactor="0.9020" arrival="109.00">
        <route edges="N_in S_out"/>
    </vehicle>

    <vehicle id="flow_1_phase1_N_straight.6" type="car" depart="82.00" departLane="0" departPos="60.8307" departSpeed="12.5224" speedFactor="0.9797" arrival="110.00">
        <route edges="N_in S_out"/>
    </vehicle>

    <vehicle id="flow_3_phase1_N_right.2" type="moto" depart="69.00" departLane="0" departPos="61.3216" departSpeed="6.8541" speedFactor="1.1043" arrival="115.00">
        <route edges="W_in E_out"/>
    </vehicle>

    <vehicle id="flow_6_phase1_S_left.2" type="truck" depart="67.00" departLane="1" departPos="92.2234" departSpeed="0.1447" speedFactor="0.8923" arrival="116.00">
        <route edges="S_in W_out"/>
    </vehicle>

    <vehicle id="flow_13_phase1_W_straight.6" type="car" depart="81.00" departLane="0" departPos="43.1808" departSpeed="3.0654" speedFactor="0.9759" arrival="118.00">
        <route edges="W_in E_out"/>
    </vehicle>

    <vehicle id="flow_15_phase1_W_right.3" type="moto" depart="99.00" departLane="0" departPos="150.3232" departSpeed="6.8844" speedFactor="1.1705" arrival="118.00">
        <route edges="W_in S_out"/>
    </vehicle>

    <vehicle id="flow_9_phase1_E_straight.5" type="moto" depart="65.00" departLane="0" departPos="52.573" departSpeed="8.1589" speedFactor="0.9964" arrival="119.00">
        <route edges="W_in N_out"/>
    </vehicle>

    <vehicle id="flow_9_phase1_E_straight.6" type="moto" depart="78.00" departLane="1" departPos="109.8853" departSpeed="2.2353" speedFactor="1.0203" arrival="121.00">
        <route edges="W_in N_out"/>
    </vehicle>

    <vehicle id="flow_9_phase1_E_straight.7" type="moto" depart="91.00" departLane="1" departPos="88.3207" departSpeed="11.9262" speedFactor="1.0085" arrival="122.00">
        <route edges="W_in N_out"/>
    </vehicle>

    <vehicle id="flow_1_phase1_N_straight.7" type="moto" depart="95.00" departLane="0" departPos="16.037" departSpeed="5.9571" speedFactor="1.0626" arrival="124.00">
        <route edges="N_in S_out"/>
    </vehicle>

    <vehicle id="flow_13_phase1_W_straight.7" type="moto" depart="94.00" departLane="1" departPos="107.805" departSpeed="10.2122" speedFactor="0.8003" arrival="126.00">
        <route edges="W_in E_out"/>
    </vehicle>

    <vehicle id="flow_5_phase1_S_straight.6" type="moto" depart="80.00" departLane="1" departPos="21.7404" departSpeed="12.0531" speedFactor="1.0983" arrival="130.00">
        <route edges="S_in N_out"/>
    </vehicle>

    <vehicle id="flow_5_phase1_S_straight.8" type="emergency" depart="106.00" departLane="0" departPos="65.7387" departSpeed="2.9737" speedFactor="1.1380" arrival="131.00">
        <route edges="S_in N_out"/>
    </vehicle>

    <vehicle id="flow_10_phase1_E_left.1" type="truck" depart="34.00" departLane="1" departPos="57.3992" departSpeed="0.2541" speedFactor="0.7665" arrival="133.00">
        <route edges="E_in S_out"/>
    </vehicle>

    <vehicle id="flow_6_phase1_S_left.3" type="car" depart="101.00" departLane="0" departPos="36.1365" departSpeed="9.2199" speedFactor="1.0972" arrival="134.00">
        <route edges="S_in W_out"/>
    </vehicle>

    <vehicle id="flow_5_phase1_S_straight.7" type="bus" depart="93.00" departLane="0" departPos="178.3578" departSpeed="1.4804" speedFactor="0.9040" arrival="135.00">
        <route edges="S_in N_out"/>
    </vehicle>

    <vehicle id="flow_4_phase1_N_uturn.1" type="moto" depart="67.00" departLane="1" departPos="89.1662" departSpeed="10.3973" speedFactor="0.9374" arrival="138.00">
        <route edges="N_in N_out"/>
    </vehicle>

    <vehicle id="flow_3_phase1_N_right.3" type="moto" depart="103.00" departLane="1" departPos="109.812" departSpeed="0.1558" speedFactor="0.9618" arrival="141.00">
        <route edges="W_in E_out"/>
    </vehicle>

    <vehicle id="flow_9_phase1_E_straight.8" type="moto" depart="104.00" departLane="0" departPos="178.6166" departSpeed="7.1187" speedFactor="0.9385" arrival="141.00">
        <route edges="W_in N_out"/>
    </vehicle>

    <vehicle id="flow_13_phase1_W_straight.8" type="moto" depart="108.00" departLane="1" departPos="57.3268" departSpeed="6.4693" speedFactor="1.0413" arrival="141.00">
        <route edges="W_in E_out"/>
    </vehicle>

    <vehicle id="flow_11_phase1_E_right.3" type="moto" depart="98.00" departLane="1" departPos="22.6438" departSpeed="7.7126" speedFactor="0.8330" arrival="142.00">
        <route edges="E_in N_out"/>
    </vehicle>

    <vehicle id="flow_13_phase1_W_straight.9" type="moto" depart="121.00" departLane="0" departPos="174.1059" departSpeed="0.3674" speedFactor="0.8391" arrival="145.00">
        <route edges="W_in E_out"/>
    </vehicle>

    <vehicle id="flow_8_phase1_S_uturn.1" type="truck" depart="66.00" departLane="0" departPos="104.1356" departSpeed="11.8543" speedFactor="0.9396" arrival="149.00">
        <route edges="E_in E_out"/>
    </vehicle>

    <vehicle id="flow_9_phase1_E_straight.9" type="truck" depart="116.00" departLane="0" departPos="2.521" departSpeed="5.0906" speedFactor="1.0019" arrival="150.00">
        <route edges="W_in N_out"/>
    </vehicle>

    <vehicle id="flow_5_phase1_S_straight.9" type="moto" depart="120.00" departLane="1" departPos="9.2851" departSpeed="9.2081" speedFactor="1.2976" arrival="152.00">
        <route edges="S_in N_out"/>
    </vehicle>

    <vehicle id="flow_5_phase1_S_straight.10" type="moto" depart="133.00" departLane="0" departPos="151.3306" departSpeed="10.5782" speedFactor="1.0281" arrival="152.00">
        <route edges="S_in N_out"/>
    </vehicle>

    <vehicle id="flow_1_phase1_N_straight.8" type="moto" depart="109.00" departLane="1" departPos="58.7528" departSpeed="11.2015" speedFactor="0.9730" arrival="154.00">
        <route edges="N_in S_out"/>
    </vehicle>

    <vehicle id="flow_7_phase1_S_right.3" type="moto" depart="98.00" departLane="1" departPos="142.1182" departSpeed="0.5142" speedFactor="1.0682" arrival="155.00">
        <route edges="N_in N_out"/>
    </vehicle>

    <vehicle id="flow_2_phase1_N_left.3" type="moto" depart="99.00" departLane="1" departPos="111.5719" departSpeed="0.0905" speedFactor="0.8878" arrival="161.00">
        <route edges="N_in E_out"/>
    </vehicle>

    <vehicle id="flow_1_phase1_N_straight.9" type="truck" depart="122.00" departLane="1" departPos="53.9882" departSpeed="4.6093" speedFactor="0.9670" arrival="163.00">
        <route edges="N_in S_out"/>
    </vehicle>

    <vehicle id="flow_6_phase1_S_left.4" type="moto" depart="134.00" departLane="1" departPos="100.3851" departSpeed="2.6524" speedFactor="1.0387" arrival="165.00">
        <route edges="S_in W_out"/>
    </vehicle>

    <vehicle id="flow_9_phase1_E_straight.10" type="moto" depart="129.00" departLane="1" departPos="103.2677" departSpeed="12.329" speedFactor="1.1157" arrival="167.00">
        <route edges="W_in N_out"/>
    </vehicle>

    <vehicle id="flow_3_phase1_N_right.4" type="moto" depart="137.00" departLane="0" departPos="172.0661" departSpeed="1.5239" speedFactor="1.0387" arrival="169.00">
        <route edges="W_in E_out"/>
    </vehicle>

    <vehicle id="flow_15_phase1_W_right.4" type="bus" depart="132.00" departLane="0" departPos="140.1793" departSpeed="11.5102" speedFactor="0.9032" arrival="170.00">
        <route edges="W_in S_out"/>
    </vehicle>

    <vehicle id="flow_13_phase1_W_straight.10" type="moto" depart="134.00" departLane="0" departPos="77.131" departSpeed="8.0376" speedFactor="1.1421" arrival="172.00">
        <route edges="W_in E_out"/>
    </vehicle>

    <vehicle id="flow_11_phase1_E_right.4" type="container" depart="130.00" departLane="1" departPos="90.8186" departSpeed="11.1509" speedFactor="1.0240" arrival="173.00">
        <route edges="E_in N_out"/>
    </vehicle>

    <vehicle id="flow_12_phase1_E_uturn.2" type="bus" depart="132.00" departLane="1" departPos="124.2821" departSpeed="3.1269" speedFactor="0.9315" arrival="174.00">
        <route edges="W_in S_out"/>
    </vehicle>

    <vehicle id="flow_16_phase1_W_uturn.2" type="car" depart="133.00" departLane="0" departPos="88.8236" departSpeed="7.0914" speedFactor="0.8850" arrival="174.00">
        <route edges="W_in W_out"/>
    </vehicle>

    <vehicle id="flow_14_phase1_W_left.3" type="moto" depart="104.00" departLane="0" departPos="173.6034" departSpeed="3.354" speedFactor="1.0873" arrival="177.00">
        <route edges="E_in S_out"/>
    </vehicle>

    <vehicle id="flow_14_phase1_W_left.2" type="car" depart="69.00" departLane="0" departPos="69.4902" departSpeed="5.5465" speedFactor="0.8975" arrival="181.00">
        <route edges="E_in S_out"/>
    </vehicle>

    <vehicle id="flow_1_phase1_N_straight.10" type="bus" depart="136.00" departLane="0" departPos="131.4461" departSpeed="12.9319" speedFactor="1.0325" arrival="184.00">
        <route edges="N_in S_out"/>
    </vehicle>

    <vehicle id="flow_5_phase1_S_straight.12" type="moto" depart="159.00" departLane="1" departPos="41.7947" departSpeed="13.2708" speedFactor="1.0699" arrival="185.00">
        <route edges="S_in N_out"/>
    </vehicle>

    <vehicle id="flow_5_phase1_S_straight.11" type="bus" depart="146.00" departLane="1" departPos="66.1547" departSpeed="11.5919" speedFactor="0.9784" arrival="186.00">
        <route edges="S_in N_out"/>
    </vehicle>

    <vehicle id="flow_1_phase1_N_straight.11" type="truck" depart="149.00" departLane="1" departPos="47.2903" departSpeed="0.8013" speedFactor="0.9137" arrival="189.00">
        <route edges="N_in S_out"/>
    </vehicle>

    <vehicle id="flow_4_phase1_N_uturn.2" type="car" depart="133.00" departLane="0" departPos="174.2328" departSpeed="5.1231" speedFactor="1.0323" arrival="190.00">
        <route edges="N_in N_out"/>
    </vehicle>

    <vehicle id="flow_9_phase1_E_straight.11" type="moto" depart="142.00" departLane="1" departPos="60.9644" departSpeed="13.9077" speedFactor="1.0448" arrival="192.00">
        <route edges="W_in N_out"/>
    </vehicle>

    <vehicle id="flow_13_phase1_W_straight.11" type="moto" depart="148.00" departLane="1" departPos="27.2886" departSpeed="13.9368" speedFactor="1.0140" arrival="192.00">
        <route edges="W_in E_out"/>
    </vehicle>

    <vehicle id="flow_11_phase1_E_right.5" type="moto" depart="163.00" departLane="0" departPos="15.88" departSpeed="1.7998" speedFactor="1.2552" arrival="193.00">
        <route edges="E_in N_out"/>
    </vehicle>

    <vehicle id="flow_9_phase1_E_straight.12" type="moto" depart="155.00" departLane="0" departPos="129.443" departSpeed="7.5464" speedFactor="1.0047" arrival="195.00">
        <route edges="W_in N_out"/>
    </vehicle>

    <vehicle id="flow_13_phase1_W_straight.12" type="moto" depart="161.00" departLane="1" departPos="113.0073" departSpeed="14.2131" speedFactor="1.1365" arrival="195.00">
        <route edges="W_in E_out"/>
    </vehicle>

    <vehicle id="flow_3_phase1_N_right.5" type="moto" depart="171.00" departLane="0" departPos="184.0677" departSpeed="1.6303" speedFactor="0.9059" arrival="195.00">
        <route edges="W_in E_out"/>
    </vehicle>

    <vehicle id="flow_15_phase1_W_right.5" type="car" depart="165.00" departLane="1" departPos="11.4261" departSpeed="12.085" speedFactor="0.9653" arrival="198.00">
        <route edges="W_in S_out"/>
    </vehicle>

    <vehicle id="flow_9_phase1_E_straight.13" type="moto" depart="168.00" departLane="1" departPos="161.9597" departSpeed="4.6303" speedFactor="0.9282" arrival="199.00">
        <route edges="W_in N_out"/>
    </vehicle>

    <vehicle id="flow_13_phase1_W_straight.13" type="moto" depart="174.00" departLane="1" departPos="165.1863" departSpeed="6.6964" speedFactor="0.8917" arrival="201.00">
        <route edges="W_in E_out"/>
    </vehicle>

    <vehicle id="flow_10_phase1_E_left.2" type="moto" depart="67.00" departLane="1" departPos="21.6793" departSpeed="6.1073" speedFactor="1.0668" arrival="203.00">
        <route edges="E_in S_out"/>
    </vehicle>

    <vehicle id="flow_7_phase1_S_right.4" type="moto" depart="130.00" departLane="1" departPos="90.2975" departSpeed="6.7962" speedFactor="0.9645" arrival="206.00">
        <route edges="N_in N_out"/>
    </vehicle>

    <vehicle id="flow_10_phase1_E_left.3" type="truck" depart="101.00" departLane="1" departPos="20.793" departSpeed="5.8396" speedFactor="1.0651" arrival="207.00">
        <route edges="E_in S_out"/>
    </vehicle>

    <vehicle id="flow_5_phase1_S_straight.13" type="moto" depart="172.00" departLane="0" departPos="187.7648" departSpeed="1.8342" speedFactor="1.2148" arrival="208.00">
        <route edges="S_in N_out"/>
    </vehicle>

    <vehicle id="flow_1_phase1_N_straight.12" type="truck" depart="163.00" departLane="0" departPos="72.1694" departSpeed="9.0749" speedFactor="0.9615" arrival="209.00">
        <route edges="N_in S_out"/>
    </vehicle>

    <vehicle id="flow_2_phase1_N_left.4" type="moto" depart="131.00" departLane="1" departPos="55.6396" departSpeed="5.4621" speedFactor="1.1571" arrival="211.00">
        <route edges="N_in E_out"/>
    </vehicle>

    <vehicle id="flow_2_phase1_N_left.5" type="car" depart="164.00" departLane="0" departPos="158.7036" departSpeed="2.4989" speedFactor="0.8868" arrival="217.00">
        <route edges="N_in E_out"/>
    </vehicle>

    <vehicle id="flow_6_phase1_S_left.5" type="bus" depart="168.00" departLane="0" departPos="22.6696" departSpeed="7.2411" speedFactor="0.9819" arrival="218.00">
        <route edges="S_in W_out"/>
    </vehicle>

    <vehicle id="flow_13_phase1_W_straight.14" type="moto" depart="188.00" departLane="0" departPos="184.144" departSpeed="0.8392" speedFactor="1.1523" arrival="218.00">
        <route edges="W_in E_out"/>
    </vehicle>

    <vehicle id="flow_8_phase1_S_uturn.2" type="moto" depart="132.00" departLane="1" departPos="60.4969" departSpeed="2.9711" speedFactor="0.9897" arrival="219.00">
        <route edges="E_in E_out"/>
    </vehicle>

    <vehicle id="flow_12_phase1_E_uturn.3" type="moto" depart="198.00" departLane="0" departPos="175.8273" departSpeed="1.7882" speedFactor="1.0747" arrival="219.00">
        <route edges="W_in S_out"/>
    </vehicle>

    <vehicle id="flow_11_phase1_E_right.6" type="car" depart="195.00" departLane="0" departPos="99.1978" departSpeed="7.0973" speedFactor="0.9838" arrival="221.00">
        <route edges="E_in N_out"/>
    </vehicle>

    <vehicle id="flow_13_phase1_W_straight.15" type="car" depart="201.00" departLane="1" departPos="182.8634" departSpeed="5.6178" speedFactor="1.0262" arrival="221.00">
        <route edges="W_in E_out"/>
    </vehicle>

    <vehicle id="flow_9_phase1_E_straight.14" type="moto" depart="181.00" departLane="1" departPos="22.618" departSpeed="0.17" speedFactor="0.8543" arrival="223.00">
        <route edges="W_in N_out"/>
    </vehicle>

    <vehicle id="flow_15_phase1_W_right.6" type="car" depart="198.00" departLane="0" departPos="116.1788" departSpeed="1.7022" speedFactor="0.9559" arrival="225.00">
        <route edges="W_in S_out"/>
    </vehicle>

    <vehicle id="flow_10_phase1_E_left.4" type="moto" depart="134.00" departLane="1" departPos="45.6162" departSpeed="9.0698" speedFactor="1.0039" arrival="226.00">
        <route edges="E_in S_out"/>
    </vehicle>

    <vehicle id="flow_9_phase1_E_straight.15" type="bus" depart="194.00" departLane="0" departPos="39.6761" departSpeed="6.4774" speedFactor="0.8815" arrival="229.00">
        <route edges="W_in N_out"/>
    </vehicle>

    <vehicle id="flow_14_phase1_W_left.4" type="bus" depart="138.00" departLane="0" departPos="3.1111" departSpeed="6.8842" speedFactor="0.8196" arrival="233.00">
        <route edges="E_in S_out"/>
    </vehicle>

    <vehicle id="flow_1_phase1_N_straight.13" type="truck" depart="176.00" departLane="1" departPos="27.7577" departSpeed="4.3298" speedFactor="0.9465" arrival="236.00">
        <route edges="N_in S_out"/>
    </vehicle>

    <vehicle id="flow_5_phase1_S_straight.14" type="car" depart="186.00" departLane="0" departPos="7.5649" departSpeed="9.0822" speedFactor="0.8047" arrival="236.00">
        <route edges="S_in N_out"/>
    </vehicle>

    <vehicle id="flow_1_phase1_N_straight.15" type="car" depart="203.00" departLane="1" departPos="44.1716" departSpeed="2.5155" speedFactor="0.9311" arrival="238.00">
        <route edges="N_in S_out"/>
    </vehicle>

    <vehicle id="flow_5_phase1_S_straight.15" type="container" depart="199.00" departLane="1" departPos="163.2859" departSpeed="1.4602" speedFactor="0.9628" arrival="241.00">
        <route edges="S_in N_out"/>
    </vehicle>

    <vehicle id="flow_6_phase1_S_left.6" type="bus" depart="201.00" departLane="1" departPos="73.7109" departSpeed="12.2533" speedFactor="1.0167" arrival="241.00">
        <route edges="S_in W_out"/>
    </vehicle>

    <vehicle id="flow_7_phase1_S_right.5" type="truck" depart="163.00" departLane="0" departPos="52.0012" departSpeed="2.188" speedFactor="1.0532" arrival="245.00">
        <route edges="N_in N_out"/>
    </vehicle>

    <vehicle id="flow_3_phase1_N_right.6" type="truck" depart="206.00" departLane="0" departPos="111.5109" departSpeed="5.5776" speedFactor="0.9035" arrival="248.00">
        <route edges="W_in E_out"/>
    </vehicle>

    <vehicle id="flow_11_phase1_E_right.7" type="moto" depart="228.00" departLane="0" departPos="134.4823" departSpeed="9.236" speedFactor="1.1783" arrival="248.00">
        <route edges="E_in N_out"/>
    </vehicle>

    <vehicle id="flow_16_phase1_W_uturn.3" type="bus" depart="199.00" departLane="1" departPos="46.7196" departSpeed="2.477" speedFactor="0.9363" arrival="249.00">
        <route edges="W_in W_out"/>
    </vehicle>

    <vehicle id="flow_9_phase1_E_straight.16" type="moto" depart="207.00" departLane="1" departPos="43.9189" departSpeed="6.0681" speedFactor="0.8950" arrival="252.00">
        <route edges="W_in N_out"/>
    </vehicle>

    <vehicle id="flow_9_phase1_E_straight.17" type="moto" depart="219.00" departLane="1" departPos="159.745" departSpeed="7.0348" speedFactor="1.1149" arrival="253.00">
        <route edges="W_in N_out"/>
    </vehicle>

    <vehicle id="flow_10_phase1_E_left.5" type="moto" depart="168.00" departLane="0" departPos="44.9537" departSpeed="6.485" speedFactor="1.0856" arrival="254.00">
        <route edges="E_in S_out"/>
    </vehicle>
