<?xml version="1.0" encoding="UTF-8"?>

<!-- generated on 2025-12-08 21:43:16 by Eclipse SUMO sumo Version 1.18.0
<configuration xmlns:xsi="http://www.w3.org/2001/XMLSchema-instance" xsi:noNamespaceSchemaLocation="http://sumo.dlr.de/xsd/sumoConfiguration.xsd">

    <input>
        <net-file value="nets/60p2k/net.net.xml"/>
        <route-files value="nets/60p2k/route_temp_281_124147880884016_33742306.rou.xml"/>
    </input>

    <output>
        <summary-output value="result_ddqn_1.9_0.4/summary_ep_10.xml"/>
        <tripinfo-output value="result_ddqn_1.9_0.4/tripinfo_ep_10.xml"/>
        <vehroute-output value="result_ddqn_1.9_0.4/vehroute_ep_10.xml"/>
    </output>

    <time>
        <begin value="0"/>
    </time>

    <report>
        <verbose value="true"/>
        <no-warnings value="true"/>
        <no-step-log value="true"/>
    </report>

    <traci_server>
        <remote-port value="37797"/>
    </traci_server>

    <gui_only>
        <gui-settings-file value="nets/60p2k/gui-settings.xml"/>
        <quit-on-end value="true"/>
    </gui_only>

</configuration>
-->

<routes xmlns:xsi="http://www.w3.org/2001/XMLSchema-instance" xsi:noNamespaceSchemaLocation="http://sumo.dlr.de/xsd/routes_file.xsd">
    <vehicle id="flow_3_phase1_N_right.0" type="car" depart="0.00" departLane="0" departPos="103.3842" departSpeed="3.7523" speedFactor="1.0907" arrival="24.00">
        <route edges="N_in W_out"/>
    </vehicle>

    <vehicle id="flow_8_phase1_S_uturn.0" type="moto" depart="0.00" departLane="0" departPos="120.1072" departSpeed="4.4837" speedFactor="1.0505" arrival="24.00">
        <route edges="S_in S_out"/>
    </vehicle>

    <vehicle id="flow_5_phase1_S_straight.0" type="moto" depart="0.00" departLane="1" departPos="107.3659" departSpeed="7.2113" speedFactor="1.1475" arrival="25.00">
        <route edges="S_in N_out"/>
    </vehicle>

    <vehicle id="flow_4_phase1_N_uturn.0" type="car" depart="0.00" departLane="1" departPos="127.6015" departSpeed="0.0774" speedFactor="0.9228" arrival="31.00">
        <route edges="N_in N_out"/>
    </vehicle>

    <vehicle id="flow_12_phase1_E_uturn.0" type="moto" depart="0.00" departLane="0" departPos="5.6544" departSpeed="13.7593" speedFactor="1.0348" arrival="35.00">
        <route edges="E_in E_out"/>
    </vehicle>

    <vehicle id="flow_14_phase1_W_left.0" type="moto" depart="0.00" departLane="1" departPos="182.8773" departSpeed="5.6108" speedFactor="1.0101" arrival="36.00">
        <route edges="W_in N_out"/>
    </vehicle>

    <vehicle id="flow_6_phase1_S_left.0" type="moto" depart="0.00" departLane="1" departPos="166.0107" departSpeed="0.7376" speedFactor="0.8806" arrival="37.00">
        <route edges="E_in N_out"/>
    </vehicle>

    <vehicle id="flow_16_phase1_W_uturn.0" type="moto" depart="0.00" departLane="0" departPos="126.6766" departSpeed="11.7148" speedFactor="1.0383" arrival="37.00">
        <route edges="W_in W_out"/>
    </vehicle>

    <vehicle id="flow_11_phase1_E_right.0" type="bus" depart="0.00" departLane="1" departPos="144.9496" departSpeed="4.0187" speedFactor="0.9581" arrival="45.00">
        <route edges="W_in W_out"/>
    </vehicle>

    <vehicle id="flow_5_phase1_S_straight.1" type="moto" depart="14.00" departLane="1" departPos="121.6549" departSpeed="2.9337" speedFactor="1.1853" arrival="48.00">
        <route edges="S_in N_out"/>
    </vehicle>

    <vehicle id="flow_5_phase1_S_straight.2" type="moto" depart="27.00" departLane="1" departPos="59.5081" departSpeed="13.2726" speedFactor="0.9623" arrival="54.00">
        <route edges="S_in N_out"/>
    </vehicle>

    <vehicle id="flow_1_phase1_N_straight.0" type="bus" depart="0.00" departLane="0" departPos="8.6229" departSpeed="8.5053" speedFactor="0.8588" arrival="56.00">
        <route edges="N_in S_out"/>
    </vehicle>

    <vehicle id="flow_2_phase1_N_left.0" type="moto" depart="0.00" departLane="1" departPos="8.2688" departSpeed="8.3291" speedFactor="1.0157" arrival="57.00">
        <route edges="N_in E_out"/>
    </vehicle>

    <vehicle id="flow_7_phase1_S_right.0" type="container" depart="0.00" departLane="0" departPos="8.759" departSpeed="8.0654" speedFactor="0.8488" arrival="57.00">
        <route edges="S_in E_out"/>
    </vehicle>

    <vehicle id="flow_1_phase1_N_straight.1" type="moto" depart="14.00" departLane="1" departPos="31.9285" departSpeed="7.0365" speedFactor="0.8727" arrival="62.00">
        <route edges="N_in S_out"/>
    </vehicle>

    <vehicle id="flow_15_phase1_W_right.0" type="moto" depart="0.00" departLane="0" departPos="108.377" departSpeed="2.6276" speedFactor="0.8472" arrival="64.00">
        <route edges="W_in S_out"/>
    </vehicle>

    <vehicle id="flow_6_phase1_S_left.1" type="moto" depart="34.00" departLane="0" departPos="4.5211" departSpeed="14.1929" speedFactor="1.0453" arrival="65.00">
        <route edges="E_in N_out"/>
    </vehicle>

    <vehicle id="flow_10_phase1_E_left.0" type="truck" depart="0.00" departLane="0" departPos="44.8816" departSpeed="7.6878" speedFactor="1.0161" arrival="66.00">
        <route edges="W_in S_out"/>
    </vehicle>

    <vehicle id="flow_13_phase1_W_straight.1" type="car" depart="14.00" departLane="1" departPos="52.8684" departSpeed="0.4341" speedFactor="1.1218" arrival="66.00">
        <route edges="W_in E_out"/>
    </vehicle>

    <vehicle id="flow_9_phase1_E_straight.0" type="truck" depart="0.00" departLane="0" departPos="168.2937" departSpeed="9.8263" speedFactor="0.8990" arrival="67.00">
        <route edges="W_in N_out"/>
    </vehicle>

    <vehicle id="flow_9_phase1_E_straight.1" type="moto" depart="13.00" departLane="0" departPos="58.3562" departSpeed="9.5396" speedFactor="1.1582" arrival="68.00">
        <route edges="W_in N_out"/>
    </vehicle>

    <vehicle id="flow_10_phase1_E_left.1" type="truck" depart="34.00" departLane="0" departPos="166.0021" departSpeed="1.1157" speedFactor="0.7665" arrival="73.00">
        <route edges="W_in S_out"/>
    </vehicle>

    <vehicle id="flow_5_phase1_S_straight.3" type="moto" depart="40.00" departLane="0" departPos="132.6219" departSpeed="5.13" speedFactor="1.0764" arrival="75.00">
        <route edges="S_in N_out"/>
    </vehicle>

    <vehicle id="flow_2_phase1_N_left.1" type="moto" depart="33.00" departLane="1" departPos="66.71" departSpeed="11.2663" speedFactor="1.1228" arrival="77.00">
        <route edges="N_in E_out"/>
    </vehicle>

    <vehicle id="flow_3_phase1_N_right.1" type="moto" depart="35.00" departLane="0" departPos="93.4122" departSpeed="11.3212" speedFactor="0.8806" arrival="77.00">
        <route edges="N_in W_out"/>
    </vehicle>

    <vehicle id="flow_1_phase1_N_straight.2" type="moto" depart="28.00" departLane="0" departPos="8.8817" departSpeed="2.3302" speedFactor="0.9279" arrival="78.00">
        <route edges="N_in S_out"/>
    </vehicle>

    <vehicle id="flow_1_phase1_N_straight.3" type="moto" depart="41.00" departLane="0" departPos="125.4807" departSpeed="7.4612" speedFactor="1.2027" arrival="79.00">
        <route edges="N_in S_out"/>
    </vehicle>

    <vehicle id="flow_1_phase1_N_straight.4" type="truck" depart="55.00" departLane="0" departPos="125.7621" departSpeed="4.4033" speedFactor="0.9194" arrival="80.00">
        <route edges="N_in S_out"/>
    </vehicle>

    <vehicle id="flow_7_phase1_S_right.1" type="container" depart="33.00" departLane="1" departPos="128.6773" departSpeed="2.3158" speedFactor="0.7845" arrival="85.00">
        <route edges="S_in E_out"/>
    </vehicle>

    <vehicle id="flow_15_phase1_W_right.1" type="moto" depart="33.00" departLane="1" departPos="79.0964" departSpeed="12.3791" speedFactor="1.0788" arrival="87.00">
        <route edges="W_in S_out"/>
    </vehicle>

    <vehicle id="flow_6_phase1_S_left.2" type="truck" depart="67.00" departLane="1" departPos="177.4982" departSpeed="6.0458" speedFactor="0.8923" arrival="89.00">
        <route edges="E_in N_out"/>
    </vehicle>

    <vehicle id="flow_9_phase1_E_straight.2" type="moto" depart="26.00" departLane="1" departPos="12.6982" departSpeed="12.8207" speedFactor="0.9938" arrival="95.00">
        <route edges="W_in N_out"/>
    </vehicle>

    <vehicle id="flow_13_phase1_W_straight.2" type="bus" depart="27.00" departLane="1" departPos="107.5311" departSpeed="1.1546" speedFactor="0.9657" arrival="95.00">
        <route edges="W_in E_out"/>
    </vehicle>

    <vehicle id="flow_13_phase1_W_straight.3" type="car" depart="41.00" departLane="1" departPos="23.5668" departSpeed="4.096" speedFactor="1.0479" arrival="97.00">
        <route edges="W_in E_out"/>
    </vehicle>

    <vehicle id="flow_13_phase1_W_straight.0" type="container" depart="0.00" departLane="0" departPos="24.5296" departSpeed="3.7887" speedFactor="0.8227" arrival="98.00">
        <route edges="W_in E_out"/>
    </vehicle>

    <vehicle id="flow_12_phase1_E_uturn.1" type="moto" depart="66.00" departLane="1" departPos="89.1662" departSpeed="10.5559" speedFactor="0.9517" arrival="100.00">
        <route edges="E_in E_out"/>
    </vehicle>

    <vehicle id="flow_5_phase1_S_straight.5" type="moto" depart="67.00" departLane="1" departPos="74.602" departSpeed="12.1466" speedFactor="1.0265" arrival="101.00">
        <route edges="S_in N_out"/>
    </vehicle>

    <vehicle id="flow_3_phase1_N_right.2" type="moto" depart="69.00" departLane="0" departPos="42.8454" departSpeed="1.4997" speedFactor="1.1043" arrival="101.00">
        <route edges="N_in W_out"/>
    </vehicle>

    <vehicle id="flow_1_phase1_N_straight.5" type="moto" depart="68.00" departLane="0" departPos="149.6933" departSpeed="1.6236" speedFactor="0.9020" arrival="103.00">
        <route edges="N_in S_out"/>
    </vehicle>

    <vehicle id="flow_7_phase1_S_right.2" type="moto" depart="65.00" departLane="0" departPos="52.573" departSpeed="8.4201" speedFactor="1.0283" arrival="107.00">
        <route edges="S_in E_out"/>
    </vehicle>

    <vehicle id="flow_5_phase1_S_straight.4" type="container" depart="53.00" departLane="1" departPos="74.0695" departSpeed="0.5747" speedFactor="0.9706" arrival="108.00">
        <route edges="S_in N_out"/>
    </vehicle>

    <vehicle id="flow_1_phase1_N_straight.6" type="car" depart="82.00" departLane="1" departPos="142.1182" departSpeed="0.4716" speedFactor="0.9797" arrival="110.00">
        <route edges="N_in S_out"/>
    </vehicle>

    <vehicle id="flow_8_phase1_S_uturn.1" type="truck" depart="66.00" departLane="0" departPos="31.7588" departSpeed="11.7983" speedFactor="0.9396" arrival="111.00">
        <route edges="S_in S_out"/>
    </vehicle>

    <vehicle id="flow_5_phase1_S_straight.6" type="moto" depart="80.00" departLane="1" departPos="41.8299" departSpeed="14.3612" speedFactor="1.0983" arrival="111.00">
        <route edges="S_in N_out"/>
    </vehicle>

    <vehicle id="flow_2_phase1_N_left.2" type="emergency" depart="66.00" departLane="1" departPos="168.2148" departSpeed="12.1281" speedFactor="1.0989" arrival="114.00">
        <route edges="N_in E_out"/>
    </vehicle>

    <vehicle id="flow_4_phase1_N_uturn.1" type="moto" depart="67.00" departLane="0" departPos="78.0885" departSpeed="11.8461" speedFactor="0.9374" arrival="118.00">
        <route edges="N_in N_out"/>
    </vehicle>

    <vehicle id="flow_2_phase1_N_left.3" type="moto" depart="99.00" departLane="0" departPos="171.5609" departSpeed="10.5127" speedFactor="0.8878" arrival="122.00">
        <route edges="N_in E_out"/>
    </vehicle>

    <vehicle id="flow_11_phase1_E_right.1" type="moto" depart="33.00" departLane="0" departPos="73.8966" departSpeed="8.8622" speedFactor="1.0365" arrival="123.00">
        <route edges="W_in W_out"/>
    </vehicle>

    <vehicle id="flow_10_phase1_E_left.2" type="moto" depart="67.00" departLane="1" departPos="63.1043" departSpeed="6.8639" speedFactor="1.0668" arrival="127.00">
        <route edges="W_in S_out"/>
    </vehicle>

    <vehicle id="flow_6_phase1_S_left.3" type="car" depart="101.00" departLane="0" departPos="50.1096" departSpeed="5.2879" speedFactor="1.0972" arrival="128.00">
        <route edges="E_in N_out"/>
    </vehicle>

    <vehicle id="flow_13_phase1_W_straight.4" type="bus" depart="54.00" departLane="1" departPos="29.1154" departSpeed="11.8173" speedFactor="0.8691" arrival="130.00">
        <route edges="W_in E_out"/>
    </vehicle>

    <vehicle id="flow_13_phase1_W_straight.5" type="moto" depart="67.00" departLane="1" departPos="84.6621" departSpeed="2.4327" speedFactor="1.1413" arrival="132.00">
        <route edges="W_in E_out"/>
    </vehicle>

    <vehicle id="flow_14_phase1_W_left.1" type="container" depart="35.00" departLane="0" departPos="86.4153" departSpeed="9.0357" speedFactor="0.9146" arrival="133.00">
        <route edges="W_in N_out"/>
    </vehicle>

    <vehicle id="flow_5_phase1_S_straight.8" type="emergency" depart="106.00" departLane="0" departPos="38.2894" departSpeed="14.5255" speedFactor="1.1380" arrival="135.00">
        <route edges="S_in N_out"/>
    </vehicle>

    <vehicle id="flow_3_phase1_N_right.3" type="moto" depart="103.00" departLane="1" departPos="177.748" departSpeed="4.1428" speedFactor="0.9618" arrival="137.00">
        <route edges="N_in W_out"/>
    </vehicle>

    <vehicle id="flow_5_phase1_S_straight.9" type="moto" depart="120.00" departLane="1" departPos="168.3233" departSpeed="5.4621" speedFactor="1.2976" arrival="137.00">
        <route edges="S_in N_out"/>
    </vehicle>

    <vehicle id="flow_1_phase1_N_straight.7" type="moto" depart="95.00" departLane="0" departPos="36.1365" departSpeed="8.9292" speedFactor="1.0626" arrival="138.00">
        <route edges="N_in S_out"/>
    </vehicle>

    <vehicle id="flow_1_phase1_N_straight.8" type="moto" depart="109.00" departLane="0" departPos="110.6444" departSpeed="7.3664" speedFactor="0.9730" arrival="139.00">
        <route edges="N_in S_out"/>
    </vehicle>

    <vehicle id="flow_7_phase1_S_right.3" type="moto" depart="98.00" departLane="1" departPos="20.793" departSpeed="5.8566" speedFactor="1.0682" arrival="142.00">
        <route edges="S_in E_out"/>
    </vehicle>

    <vehicle id="flow_5_phase1_S_straight.7" type="bus" depart="93.00" departLane="1" departPos="111.5719" departSpeed="0.0922" speedFactor="0.9040" arrival="143.00">
        <route edges="S_in N_out"/>
    </vehicle>

    <vehicle id="flow_1_phase1_N_straight.9" type="truck" depart="122.00" departLane="0" departPos="45.7887" departSpeed="8.7783" speedFactor="0.9670" arrival="150.00">
        <route edges="N_in S_out"/>
    </vehicle>

    <vehicle id="flow_7_phase1_S_right.4" type="moto" depart="130.00" departLane="0" departPos="140.1793" departSpeed="12.2914" speedFactor="0.9645" arrival="152.00">
        <route edges="S_in E_out"/>
    </vehicle>

    <vehicle id="flow_5_phase1_S_straight.10" type="moto" depart="133.00" departLane="0" departPos="172.0661" departSpeed="4.6806" speedFactor="1.0281" arrival="153.00">
        <route edges="S_in N_out"/>
    </vehicle>

    <vehicle id="flow_8_phase1_S_uturn.2" type="moto" depart="132.00" departLane="1" departPos="159.8742" departSpeed="7.2837" speedFactor="0.9897" arrival="154.00">
        <route edges="S_in S_out"/>
    </vehicle>

    <vehicle id="flow_4_phase1_N_uturn.2" type="car" depart="133.00" departLane="0" departPos="131.4461" departSpeed="12.9294" speedFactor="1.0323" arrival="156.00">
        <route edges="N_in N_out"/>
    </vehicle>

    <vehicle id="flow_6_phase1_S_left.4" type="moto" depart="134.00" departLane="1" departPos="168.8768" departSpeed="11.4074" speedFactor="1.0387" arrival="159.00">
        <route edges="E_in N_out"/>
    </vehicle>

    <vehicle id="flow_15_phase1_W_right.2" type="moto" depart="66.00" departLane="1" departPos="2.2119" departSpeed="0.0106" speedFactor="0.8882" arrival="161.00">
        <route edges="W_in S_out"/>
    </vehicle>

    <vehicle id="flow_13_phase1_W_straight.7" type="moto" depart="94.00" departLane="0" departPos="150.3232" departSpeed="4.7865" speedFactor="0.8003" arrival="165.00">
        <route edges="W_in E_out"/>
    </vehicle>

    <vehicle id="flow_9_phase1_E_straight.3" type="bus" depart="39.00" departLane="0" departPos="56.1823" departSpeed="6.7897" speedFactor="0.8515" arrival="167.00">
        <route edges="W_in N_out"/>
    </vehicle>

    <vehicle id="flow_13_phase1_W_straight.6" type="car" depart="81.00" departLane="1" departPos="16.037" departSpeed="7.713" speedFactor="0.9759" arrival="167.00">
        <route edges="W_in E_out"/>
    </vehicle>

    <vehicle id="flow_10_phase1_E_left.3" type="truck" depart="101.00" departLane="0" departPos="144.2877" departSpeed="4.4764" speedFactor="1.0651" arrival="168.00">
        <route edges="W_in S_out"/>
    </vehicle>

    <vehicle id="flow_12_phase1_E_uturn.2" type="bus" depart="132.00" departLane="0" departPos="45.6162" departSpeed="11.9874" speedFactor="0.9315" arrival="168.00">
        <route edges="E_in E_out"/>
    </vehicle>

    <vehicle id="flow_9_phase1_E_straight.4" type="bus" depart="52.00" departLane="0" departPos="70.4575" departSpeed="1.8689" speedFactor="0.9525" arrival="169.00">
        <route edges="W_in N_out"/>
    </vehicle>

    <vehicle id="flow_2_phase1_N_left.4" type="moto" depart="131.00" departLane="1" departPos="75.2144" departSpeed="7.4957" speedFactor="1.1571" arrival="171.00">
        <route edges="N_in E_out"/>
    </vehicle>

    <vehicle id="flow_3_phase1_N_right.4" type="moto" depart="137.00" departLane="1" departPos="133.5978" departSpeed="9.857" speedFactor="1.0387" arrival="172.00">
        <route edges="N_in W_out"/>
    </vehicle>

    <vehicle id="flow_5_phase1_S_straight.11" type="bus" depart="146.00" departLane="1" departPos="21.3277" departSpeed="6.9708" speedFactor="0.9784" arrival="177.00">
        <route edges="S_in N_out"/>
    </vehicle>

    <vehicle id="flow_1_phase1_N_straight.10" type="bus" depart="136.00" departLane="0" departPos="8.1725" departSpeed="3.5796" speedFactor="1.0325" arrival="178.00">
        <route edges="N_in S_out"/>
    </vehicle>

    <vehicle id="flow_15_phase1_W_right.3" type="moto" depart="99.00" departLane="0" departPos="43.7958" departSpeed="14.6501" speedFactor="1.1705" arrival="183.00">
        <route edges="W_in S_out"/>
    </vehicle>

    <vehicle id="flow_9_phase1_E_straight.5" type="moto" depart="65.00" departLane="1" departPos="112.3734" departSpeed="6.1425" speedFactor="0.9964" arrival="186.00">
        <route edges="W_in N_out"/>
    </vehicle>

    <vehicle id="flow_11_phase1_E_right.2" type="moto" depart="65.00" departLane="1" departPos="104.1356" departSpeed="1.6348" speedFactor="1.1432" arrival="186.00">
        <route edges="W_in W_out"/>
    </vehicle>

    <vehicle id="flow_13_phase1_W_straight.8" type="moto" depart="108.00" departLane="1" departPos="7.4986" departSpeed="4.1215" speedFactor="1.0413" arrival="187.00">
        <route edges="W_in E_out"/>
    </vehicle>

    <vehicle id="flow_9_phase1_E_straight.10" type="moto" depart="129.00" departLane="0" departPos="124.2821" departSpeed="13.8582" speedFactor="1.1157" arrival="188.00">
        <route edges="W_in N_out"/>
    </vehicle>

    <vehicle id="flow_16_phase1_W_uturn.1" type="moto" depart="67.00" departLane="1" departPos="29.8839" departSpeed="10.4437" speedFactor="1.0390" arrival="191.00">
        <route edges="W_in W_out"/>
    </vehicle>

    <vehicle id="flow_13_phase1_W_straight.9" type="moto" depart="121.00" departLane="1" departPos="40.9491" departSpeed="1.7913" speedFactor="0.8391" arrival="192.00">
        <route edges="W_in E_out"/>
    </vehicle>

    <vehicle id="flow_14_phase1_W_left.2" type="car" depart="69.00" departLane="1" departPos="47.4954" departSpeed="2.4369" speedFactor="0.8975" arrival="195.00">
        <route edges="W_in N_out"/>
    </vehicle>

    <vehicle id="flow_15_phase1_W_right.4" type="bus" depart="132.00" departLane="0" departPos="77.131" departSpeed="6.3563" speedFactor="0.9032" arrival="196.00">
        <route edges="W_in S_out"/>
    </vehicle>

    <vehicle id="flow_5_phase1_S_straight.12" type="moto" depart="159.00" departLane="1" departPos="50.8725" departSpeed="5.3372" speedFactor="1.0699" arrival="198.00">
        <route edges="S_in N_out"/>
    </vehicle>

    <vehicle id="flow_5_phase1_S_straight.13" type="moto" depart="172.00" departLane="0" departPos="154.1317" departSpeed="12.6098" speedFactor="1.2148" arrival="200.00">
        <route edges="S_in N_out"/>
    </vehicle>

    <vehicle id="flow_7_phase1_S_right.5" type="truck" depart="163.00" departLane="1" departPos="120.4896" departSpeed="14.4978" speedFactor="1.0532" arrival="202.00">
        <route edges="S_in E_out"/>
    </vehicle>

    <vehicle id="flow_1_phase1_N_straight.11" type="truck" depart="149.00" departLane="0" departPos="11.4261" departSpeed="5.3703" speedFactor="0.9137" arrival="204.00">
        <route edges="N_in S_out"/>
    </vehicle>

    <vehicle id="flow_3_phase1_N_right.5" type="moto" depart="171.00" departLane="0" departPos="100.2317" departSpeed="9.453" speedFactor="0.9059" arrival="205.00">
        <route edges="N_in W_out"/>
    </vehicle>

    <vehicle id="flow_2_phase1_N_left.5" type="car" depart="164.00" departLane="1" departPos="138.898" departSpeed="10.7393" speedFactor="0.8868" arrival="207.00">
        <route edges="N_in E_out"/>
    </vehicle>

    <vehicle id="flow_1_phase1_N_straight.13" type="truck" depart="176.00" departLane="0" departPos="15.6422" departSpeed="7.3083" speedFactor="0.9465" arrival="208.00">
        <route edges="N_in S_out"/>
    </vehicle>

    <vehicle id="flow_10_phase1_E_left.4" type="moto" depart="134.00" departLane="0" departPos="66.1547" departSpeed="1.0941" speedFactor="1.0039" arrival="211.00">
        <route edges="W_in S_out"/>
    </vehicle>

    <vehicle id="flow_9_phase1_E_straight.6" type="moto" depart="78.00" departLane="0" departPos="36.1232" departSpeed="6.6064" speedFactor="1.0203" arrival="212.00">
        <route edges="W_in N_out"/>
    </vehicle>

    <vehicle id="flow_13_phase1_W_straight.10" type="moto" depart="134.00" departLane="1" departPos="10.777" departSpeed="7.1529" speedFactor="1.1421" arrival="212.00">
        <route edges="W_in E_out"/>
    </vehicle>

    <vehicle id="flow_1_phase1_N_straight.12" type="truck" depart="163.00" departLane="0" departPos="114.397" departSpeed="12.9749" speedFactor="0.9615" arrival="212.00">
        <route edges="N_in S_out"/>
    </vehicle>

    <vehicle id="flow_9_phase1_E_straight.7" type="moto" depart="91.00" departLane="1" departPos="22.6438" departSpeed="9.3376" speedFactor="1.0085" arrival="215.00">
        <route edges="W_in N_out"/>
    </vehicle>

    <vehicle id="flow_13_phase1_W_straight.11" type="moto" depart="148.00" departLane="1" departPos="38.4375" departSpeed="1.1583" speedFactor="1.0140" arrival="215.00">
        <route edges="W_in E_out"/>
    </vehicle>

    <vehicle id="flow_10_phase1_E_left.5" type="moto" depart="168.00" departLane="0" departPos="122.1483" departSpeed="0.7915" speedFactor="1.0856" arrival="215.00">
        <route edges="W_in S_out"/>
    </vehicle>

    <vehicle id="flow_6_phase1_S_left.5" type="bus" depart="168.00" departLane="1" departPos="22.618" departSpeed="0.1954" speedFactor="0.9819" arrival="216.00">
        <route edges="E_in N_out"/>
    </vehicle>

    <vehicle id="flow_12_phase1_E_uturn.3" type="moto" depart="198.00" departLane="1" departPos="186.6454" departSpeed="2.9536" speedFactor="1.0747" arrival="216.00">
        <route edges="E_in E_out"/>
    </vehicle>

    <vehicle id="flow_15_phase1_W_right.5" type="car" depart="165.00" departLane="0" departPos="27.7577" departSpeed="11.34" speedFactor="0.9653" arrival="219.00">
        <route edges="W_in S_out"/>
    </vehicle>

    <vehicle id="flow_11_phase1_E_right.3" type="moto" depart="98.00" departLane="1" departPos="43.6737" departSpeed="0.1349" speedFactor="0.8330" arrival="220.00">
        <route edges="W_in W_out"/>
    </vehicle>

    <vehicle id="flow_9_phase1_E_straight.8" type="moto" depart="104.00" departLane="1" departPos="40.1395" departSpeed="0.1735" speedFactor="0.9385" arrival="220.00">
        <route edges="W_in N_out"/>
    </vehicle>

    <vehicle id="flow_14_phase1_W_left.3" type="moto" depart="104.00" departLane="1" departPos="5.9793" departSpeed="0.7401" speedFactor="1.0873" arrival="221.00">
        <route edges="W_in N_out"/>
    </vehicle>

    <vehicle id="flow_7_phase1_S_right.6" type="car" depart="195.00" departLane="0" departPos="135.4921" departSpeed="6.0929" speedFactor="1.1275" arrival="223.00">
        <route edges="S_in E_out"/>
    </vehicle>

    <vehicle id="flow_1_phase1_N_straight.14" type="car" depart="190.00" departLane="1" departPos="36.0857" departSpeed="3.8408" speedFactor="0.9718" arrival="227.00">
        <route edges="N_in S_out"/>
    </vehicle>

    <vehicle id="flow_5_phase1_S_straight.15" type="container" depart="199.00" departLane="0" departPos="75.6038" departSpeed="6.9776" speedFactor="0.9628" arrival="227.00">
        <route edges="S_in N_out"/>
    </vehicle>

    <vehicle id="flow_5_phase1_S_straight.14" type="car" depart="186.00" departLane="1" departPos="12.5958" departSpeed="1.9481" speedFactor="0.8047" arrival="229.00">
        <route edges="S_in N_out"/>
    </vehicle>

    <vehicle id="flow_1_phase1_N_straight.15" type="car" depart="203.00" departLane="0" departPos="109.4469" departSpeed="1.7827" speedFactor="0.9311" arrival="230.00">
        <route edges="N_in S_out"/>
    </vehicle>

    <vehicle id="flow_5_phase1_S_straight.16" type="moto" depart="212.00" departLane="1" departPos="179.3661" departSpeed="5.2111" speedFactor="1.2172" arrival="232.00">
        <route edges="S_in N_out"/>
    </vehicle>

    <vehicle id="flow_8_phase1_S_uturn.3" type="car" depart="198.00" departLane="1" departPos="55.0563" departSpeed="2.4215" speedFactor="0.8963" arrival="233.00">
        <route edges="S_in S_out"/>
    </vehicle>

    <vehicle id="flow_13_phase1_W_straight.12" type="moto" depart="161.00" departLane="1" departPos="43.1771" departSpeed="3.7455" speedFactor="1.1365" arrival="237.00">
        <route edges="W_in E_out"/>
    </vehicle>

    <vehicle id="flow_2_phase1_N_left.6" type="moto" depart="197.00" departLane="0" departPos="182.8634" departSpeed="5.6178" speedFactor="0.8416" arrival="241.00">
        <route edges="N_in E_out"/>
    </vehicle>

    <vehicle id="flow_6_phase1_S_left.6" type="bus" depart="201.00" departLane="0" departPos="157.8672" departSpeed="0.3332" speedFactor="1.0167" arrival="241.00">
        <route edges="E_in N_out"/>
    </vehicle>

    <vehicle id="flow_9_phase1_E_straight.9" type="truck" depart="116.00" departLane="1" departPos="90.8186" departSpeed="6.6325" speedFactor="1.0019" arrival="242.00">
        <route edges="W_in N_out"/>
    </vehicle>

    <vehicle id="flow_14_phase1_W_left.6" type="moto" depart="207.00" departLane="0" departPos="182.0482" departSpeed="3.6462" speedFactor="0.8697" arrival="246.00">
        <route edges="W_in N_out"/>
    </vehicle>

    <vehicle id="flow_11_phase1_E_right.4" type="container" depart="130.00" departLane="0" departPos="5.0473" departSpeed="4.9985" speedFactor="1.0240" arrival="250.00">
        <route edges="W_in W_out"/>
    </vehicle>

    <vehicle id="flow_5_phase1_S_straight.17" type="moto" depart="225.00" departLane="0" departPos="166.4958" departSpeed="8.1434" speedFactor="0.8818" arrival="253.00">
        <route edges="S_in N_out"/>
    </vehicle>

    <vehicle id="flow_1_phase1_N_straight.16" type="moto" depart="217.00" departLane="0" departPos="131.7408" departSpeed="0.4644" speedFactor="1.0821" arrival="254.00">
        <route edges="N_in S_out"/>
    </vehicle>

    <vehicle id="flow_3_phase1_N_right.6" type="truck" depart="206.00" departLane="0" departPos="33.6285" departSpeed="7.9333" speedFactor="0.9035" arrival="255.00">
        <route edges="N_in W_out"/>
    </vehicle>

    <vehicle id="flow_7_phase1_S_right.7" type="moto" depart="228.00" departLane="1" departPos="75.4843" departSpeed="7.088" speedFactor="0.9986" arrival="255.00">
        <route edges="S_in E_out"/>
    </vehicle>

    <vehicle id="flow_4_phase1_N_uturn.3" type="bus" depart="199.00" departLane="0" departPos="153.1849" departSpeed="3.1232" speedFactor="0.9700" arrival="256.00">
        <route edges="N_in N_out"/>
    </vehicle>

    <vehicle id="flow_2_phase1_N_left.7" type="car" depart="229.00" departLane="0" departPos="89.3474" departSpeed="10.8229" speedFactor="1.0423" arrival="256.00">
        <route edges="N_in E_out"/>
    </vehicle>

    <vehicle id="flow_13_phase1_W_straight.13" type="moto" depart="174.00" departLane="1" departPos="28.4645" departSpeed="6.7463" speedFactor="0.8917" arrival="266.00">
        <route edges="W_in E_out"/>
    </vehicle>

    <vehicle id="flow_13_phase1_W_straight.14" type="moto" depart="188.00" departLane="1" departPos="20.6867" departSpeed="12.9711" speedFactor="1.1523" arrival="267.00">
        <route edges="W_in E_out"/>
    </vehicle>

    <vehicle id="flow_6_phase1_S_left.7" type="truck" depart="235.00" departLane="0" departPos="51.1674" departSpeed="7.861" speedFactor="0.9351" arrival="267.00">
        <route edges="E_in N_out"/>
    </vehicle>

    <vehicle id="flow_9_phase1_E_straight.15" type="bus" depart="194.00" departLane="0" departPos="164.3932" departSpeed="0.699" speedFactor="0.8815" arrival="270.00">
        <route edges="W_in N_out"/>
    </vehicle>

    <vehicle id="flow_15_phase1_W_right.6" type="car" depart="198.00" departLane="1" departPos="58.4782" departSpeed="2.1553" speedFactor="0.9559" arrival="272.00">
        <route edges="W_in S_out"/>
    </vehicle>

    <vehicle id="flow_13_phase1_W_straight.17" type="truck" depart="228.00" departLane="0" departPos="143.1615" departSpeed="1.5324" speedFactor="0.8482" arrival="272.00">
        <route edges="W_in E_out"/>
    </vehicle>
