<?xml version="1.0" encoding="UTF-8"?>

<!-- generated on 2025-12-09 23:42:37 by Eclipse SUMO sumo Version 1.18.0
<configuration xmlns:xsi="http://www.w3.org/2001/XMLSchema-instance" xsi:noNamespaceSchemaLocation="http://sumo.dlr.de/xsd/sumoConfiguration.xsd">

    <input>
        <net-file value="nets/120p4k/net.net.xml"/>
        <route-files value="nets/120p4k/route_temp_784_139142733854512_59322201.rou.xml"/>
    </input>

    <output>
        <summary-output value="result_ddqn_1.5_0.1/summary_ep_3.xml"/>
        <tripinfo-output value="result_ddqn_1.5_0.1/tripinfo_ep_3.xml"/>
        <vehroute-output value="result_ddqn_1.5_0.1/vehroute_ep_3.xml"/>
    </output>

    <time>
        <begin value="0"/>
    </time>

    <report>
        <verbose value="true"/>
        <no-warnings value="true"/>
        <no-step-log value="true"/>
    </report>

    <traci_server>
        <remote-port value="50949"/>
    </traci_server>

    <gui_only>
        <gui-settings-file value="nets/120p4k/gui-settings.xml"/>
        <quit-on-end value="true"/>
    </gui_only>

</configuration>
-->

<tripinfos xmlns:xsi="http://www.w3.org/2001/XMLSchema-instance" xsi:noNamespaceSchemaLocation="http://sumo.dlr.de/xsd/tripinfo_file.xsd">
    <tripinfo id="flow_14_increasing_0_W_left.0" depart="0.00" departLane="N_in_1" departPos="182.88" departSpeed="5.61" departDelay="0.00" arrival="19.00" arrivalLane="N_out_1" arrivalPos="189.60" arrivalSpeed="14.04" duration="19.00" routeLength="200.99" waitingTime="0.00" waitingCount="0" stopTime="0.00" timeLoss="3.33" rerouteNo="0" devices="vehroute_flow_14_increasing_0_W_left.0 tripinfo_flow_14_increasing_0_W_left.0" vType="moto" speedFactor="1.01" vaporized=""/>
    <tripinfo id="flow_3_increasing_0_N_right.0" depart="0.00" departLane="N_in_0" departPos="103.38" departSpeed="3.81" departDelay="0.00" arrival="24.00" arrivalLane="W_out_0" arrivalPos="189.60" arrivalSpeed="14.24" duration="24.00" routeLength="284.85" waitingTime="0.00" waitingCount="0" stopTime="0.00" timeLoss="4.64" rerouteNo="0" devices="vehroute_flow_3_increasing_0_N_right.0 tripinfo_flow_3_increasing_0_N_right.0" vType="moto" speedFactor="1.11" vaporized=""/>
    <tripinfo id="flow_6_increasing_0_S_left.0" depart="0.00" departLane="S_in_1" departPos="166.01" departSpeed="0.74" departDelay="0.00" arrival="25.00" arrivalLane="W_out_1" arrivalPos="189.60" arrivalSpeed="11.57" duration="25.00" routeLength="232.54" waitingTime="0.00" waitingCount="0" stopTime="0.00" timeLoss="4.42" rerouteNo="0" devices="vehroute_flow_6_increasing_0_S_left.0 tripinfo_flow_6_increasing_0_S_left.0" vType="moto" speedFactor="0.88" vaporized=""/>
    <tripinfo id="flow_8_increasing_0_S_uturn.0" depart="0.00" departLane="S_in_0" departPos="120.11" departSpeed="4.48" departDelay="0.00" arrival="25.00" arrivalLane="S_out_1" arrivalPos="189.60" arrivalSpeed="13.35" duration="25.00" routeLength="263.76" waitingTime="0.00" waitingCount="0" stopTime="0.00" timeLoss="5.19" rerouteNo="0" devices="vehroute_flow_8_increasing_0_S_uturn.0 tripinfo_flow_8_increasing_0_S_uturn.0" vType="moto" speedFactor="1.05" vaporized=""/>
    <tripinfo id="flow_11_increasing_0_E_right.0" depart="0.00" departLane="N_in_1" departPos="144.95" departSpeed="4.02" departDelay="0.00" arrival="29.00" arrivalLane="N_out_1" arrivalPos="189.60" arrivalSpeed="13.11" duration="29.00" routeLength="238.92" waitingTime="0.00" waitingCount="0" stopTime="0.00" timeLoss="9.72" rerouteNo="0" devices="vehroute_flow_11_increasing_0_E_right.0 tripinfo_flow_11_increasing_0_E_right.0" vType="bus" speedFactor="0.96" vaporized=""/>
    <tripinfo id="flow_4_increasing_0_N_uturn.0" depart="0.00" departLane="N_in_1" departPos="127.60" departSpeed="0.08" departDelay="0.00" arrival="32.00" arrivalLane="N_out_1" arrivalPos="189.60" arrivalSpeed="12.18" duration="32.00" routeLength="256.27" waitingTime="0.00" waitingCount="0" stopTime="0.00" timeLoss="10.12" rerouteNo="0" devices="vehroute_flow_4_increasing_0_N_uturn.0 tripinfo_flow_4_increasing_0_N_uturn.0" vType="moto" speedFactor="0.91" vaporized=""/>
    <tripinfo id="flow_7_increasing_0_S_right.0" depart="0.00" departLane="S_in_0" departPos="8.76" departSpeed="8.47" departDelay="0.00" arrival="36.00" arrivalLane="E_out_0" arrivalPos="189.60" arrivalSpeed="12.08" duration="36.00" routeLength="379.47" waitingTime="0.00" waitingCount="0" stopTime="0.00" timeLoss="3.85" rerouteNo="0" devices="vehroute_flow_7_increasing_0_S_right.0 tripinfo_flow_7_increasing_0_S_right.0" vType="bus" speedFactor="0.89" vaporized=""/>
    <tripinfo id="flow_16_increasing_0_W_uturn.0" depart="0.00" departLane="W_in_0" departPos="126.68" departSpeed="11.71" departDelay="0.00" arrival="36.00" arrivalLane="W_out_1" arrivalPos="189.60" arrivalSpeed="14.32" duration="36.00" routeLength="257.19" waitingTime="10.00" waitingCount="1" stopTime="0.00" timeLoss="16.21" rerouteNo="0" devices="vehroute_flow_16_increasing_0_W_uturn.0 tripinfo_flow_16_increasing_0_W_uturn.0" vType="moto" speedFactor="1.04" vaporized=""/>
    <tripinfo id="flow_9_increasing_0_E_straight.0" depart="0.00" departLane="E_in_0" departPos="168.29" departSpeed="10.73" departDelay="0.00" arrival="37.00" arrivalLane="W_out_0" arrivalPos="189.60" arrivalSpeed="12.33" duration="37.00" routeLength="231.71" waitingTime="12.00" waitingCount="1" stopTime="0.00" timeLoss="18.62" rerouteNo="0" devices="vehroute_flow_9_increasing_0_E_straight.0 tripinfo_flow_9_increasing_0_E_straight.0" vType="car" speedFactor="0.94" vaporized=""/>
    <tripinfo id="flow_5_increasing_0_S_straight.0" depart="0.00" departLane="W_in_1" departPos="107.37" departSpeed="7.21" departDelay="0.00" arrival="38.00" arrivalLane="E_out_0" arrivalPos="189.60" arrivalSpeed="14.53" duration="38.00" routeLength="292.63" waitingTime="8.00" waitingCount="1" stopTime="0.00" timeLoss="19.40" rerouteNo="0" devices="vehroute_flow_5_increasing_0_S_straight.0 tripinfo_flow_5_increasing_0_S_straight.0" vType="moto" speedFactor="1.15" vaporized=""/>
    <tripinfo id="flow_15_increasing_0_W_right.0" depart="0.00" departLane="W_in_0" departPos="108.38" departSpeed="2.63" departDelay="0.00" arrival="39.00" arrivalLane="S_out_0" arrivalPos="189.60" arrivalSpeed="11.14" duration="39.00" routeLength="279.85" waitingTime="6.00" waitingCount="1" stopTime="0.00" timeLoss="13.77" rerouteNo="0" devices="vehroute_flow_15_increasing_0_W_right.0 tripinfo_flow_15_increasing_0_W_right.0" vType="moto" speedFactor="0.85" vaporized=""/>
    <tripinfo id="flow_13_increasing_0_W_straight.0" depart="0.00" departLane="W_in_0" departPos="24.53" departSpeed="3.97" departDelay="0.00" arrival="41.00" arrivalLane="E_out_1" arrivalPos="189.60" arrivalSpeed="11.52" duration="41.00" routeLength="375.47" waitingTime="0.00" waitingCount="0" stopTime="0.00" timeLoss="9.26" rerouteNo="0" devices="vehroute_flow_13_increasing_0_W_straight.0 tripinfo_flow_13_increasing_0_W_straight.0" vType="bus" speedFactor="0.86" vaporized=""/>
    <tripinfo id="flow_10_increasing_0_E_left.0" depart="0.00" departLane="E_in_0" departPos="44.88" departSpeed="8.19" departDelay="0.00" arrival="43.00" arrivalLane="S_out_1" arrivalPos="189.60" arrivalSpeed="14.14" duration="43.00" routeLength="353.67" waitingTime="7.00" waitingCount="2" stopTime="0.00" timeLoss="18.20" rerouteNo="0" devices="vehroute_flow_10_increasing_0_E_left.0 tripinfo_flow_10_increasing_0_E_left.0" vType="car" speedFactor="1.08" vaporized=""/>
    <tripinfo id="flow_12_increasing_0_E_uturn.0" depart="0.00" departLane="E_in_0" departPos="5.65" departSpeed="13.76" departDelay="0.00" arrival="44.00" arrivalLane="E_out_1" arrivalPos="189.60" arrivalSpeed="14.24" duration="44.00" routeLength="378.22" waitingTime="6.00" waitingCount="2" stopTime="0.00" timeLoss="16.85" rerouteNo="0" devices="vehroute_flow_12_increasing_0_E_uturn.0 tripinfo_flow_12_increasing_0_E_uturn.0" vType="moto" speedFactor="1.03" vaporized=""/>
    <tripinfo id="flow_2_increasing_0_N_left.0" depart="0.00" departLane="N_in_1" departPos="8.27" departSpeed="8.33" departDelay="0.00" arrival="49.00" arrivalLane="E_out_1" arrivalPos="189.60" arrivalSpeed="13.08" duration="49.00" routeLength="390.28" waitingTime="12.00" waitingCount="1" stopTime="0.00" timeLoss="20.19" rerouteNo="0" devices="vehroute_flow_2_increasing_0_N_left.0 tripinfo_flow_2_increasing_0_N_left.0" vType="moto" speedFactor="1.02" vaporized=""/>
    <tripinfo id="flow_1_increasing_0_N_straight.0" depart="0.00" departLane="N_in_0" departPos="8.62" departSpeed="8.51" departDelay="0.00" arrival="55.00" arrivalLane="S_out_0" arrivalPos="189.60" arrivalSpeed="11.31" duration="55.00" routeLength="391.38" waitingTime="11.00" waitingCount="1" stopTime="0.00" timeLoss="22.10" rerouteNo="0" devices="vehroute_flow_1_increasing_0_N_straight.0 tripinfo_flow_1_increasing_0_N_straight.0" vType="truck" speedFactor="0.86" vaporized=""/>
    <tripinfo id="flow_9_increasing_0_E_straight.1" depart="39.00" departLane="E_in_0" departPos="131.13" departSpeed="9.54" departDelay="0.54" arrival="58.00" arrivalLane="W_out_0" arrivalPos="189.60" arrivalSpeed="15.09" duration="19.00" routeLength="268.87" waitingTime="0.00" waitingCount="0" stopTime="0.00" timeLoss="1.86" rerouteNo="0" devices="vehroute_flow_9_increasing_0_E_straight.1 tripinfo_flow_9_increasing_0_E_straight.1" vType="moto" speedFactor="1.16" vaporized=""/>
    <tripinfo id="flow_13_increasing_0_W_straight.1" depart="41.00" departLane="W_in_1" departPos="31.93" departSpeed="9.28" departDelay="0.60" arrival="67.00" arrivalLane="E_out_1" arrivalPos="189.60" arrivalSpeed="15.50" duration="26.00" routeLength="368.07" waitingTime="0.00" waitingCount="0" stopTime="0.00" timeLoss="2.71" rerouteNo="0" devices="vehroute_flow_13_increasing_0_W_straight.1 tripinfo_flow_13_increasing_0_W_straight.1" vType="moto" speedFactor="1.19" vaporized=""/>
    <tripinfo id="flow_5_increasing_0_S_straight.1" depart="40.00" departLane="W_in_1" departPos="58.36" departSpeed="11.64" departDelay="0.20" arrival="70.00" arrivalLane="E_out_0" arrivalPos="189.60" arrivalSpeed="10.90" duration="30.00" routeLength="341.64" waitingTime="0.00" waitingCount="0" stopTime="0.00" timeLoss="1.69" rerouteNo="0" devices="vehroute_flow_5_increasing_0_S_straight.1 tripinfo_flow_5_increasing_0_S_straight.1" vType="moto" speedFactor="0.87" vaporized=""/>
    <tripinfo id="flow_1_increasing_0_N_straight.1" depart="42.00" departLane="N_in_1" departPos="121.65" departSpeed="2.92" departDelay="0.12" arrival="84.00" arrivalLane="S_out_0" arrivalPos="189.60" arrivalSpeed="15.87" duration="42.00" routeLength="278.35" waitingTime="15.00" waitingCount="1" stopTime="0.00" timeLoss="23.96" rerouteNo="0" devices="vehroute_flow_1_increasing_0_N_straight.1 tripinfo_flow_1_increasing_0_N_straight.1" vType="moto" speedFactor="1.15" vaporized=""/>
    <tripinfo id="flow_9_increasing_0_E_straight.2" depart="77.00" departLane="E_in_1" departPos="52.87" departSpeed="0.38" departDelay="0.08" arrival="107.00" arrivalLane="W_out_0" arrivalPos="189.60" arrivalSpeed="13.77" duration="30.00" routeLength="347.13" waitingTime="0.00" waitingCount="0" stopTime="0.00" timeLoss="4.26" rerouteNo="0" devices="vehroute_flow_9_increasing_0_E_straight.2 tripinfo_flow_9_increasing_0_E_straight.2" vType="moto" speedFactor="0.99" vaporized=""/>
    <tripinfo id="flow_13_increasing_0_W_straight.2" depart="81.00" departLane="W_in_1" departPos="59.51" departSpeed="13.32" departDelay="0.19" arrival="108.00" arrivalLane="E_out_1" arrivalPos="189.60" arrivalSpeed="13.24" duration="27.00" routeLength="340.49" waitingTime="0.00" waitingCount="0" stopTime="0.00" timeLoss="0.89" rerouteNo="0" devices="vehroute_flow_13_increasing_0_W_straight.2 tripinfo_flow_13_increasing_0_W_straight.2" vType="truck" speedFactor="0.97" vaporized=""/>
    <tripinfo id="flow_5_increasing_0_S_straight.2" depart="80.00" departLane="W_in_1" departPos="12.70" departSpeed="12.41" departDelay="0.40" arrival="111.00" arrivalLane="E_out_0" arrivalPos="189.60" arrivalSpeed="12.77" duration="31.00" routeLength="387.30" waitingTime="0.00" waitingCount="0" stopTime="0.00" timeLoss="1.48" rerouteNo="0" devices="vehroute_flow_5_increasing_0_S_straight.2 tripinfo_flow_5_increasing_0_S_straight.2" vType="moto" speedFactor="0.96" vaporized=""/>
    <tripinfo id="flow_1_increasing_0_N_straight.2" depart="84.00" departLane="N_in_1" departPos="107.53" departSpeed="1.11" departDelay="0.23" arrival="123.00" arrivalLane="S_out_0" arrivalPos="189.60" arrivalSpeed="12.77" duration="39.00" routeLength="292.47" waitingTime="7.00" waitingCount="1" stopTime="0.00" timeLoss="15.38" rerouteNo="0" devices="vehroute_flow_1_increasing_0_N_straight.2 tripinfo_flow_1_increasing_0_N_straight.2" vType="moto" speedFactor="0.93" vaporized=""/>
    <tripinfo id="flow_6_increasing_0_S_left.1" depart="100.00" departLane="S_in_0" departPos="156.52" departSpeed="9.22" departDelay="0.50" arrival="123.00" arrivalLane="W_out_1" arrivalPos="189.60" arrivalSpeed="14.06" duration="23.00" routeLength="242.03" waitingTime="1.00" waitingCount="1" stopTime="0.00" timeLoss="6.09" rerouteNo="0" devices="vehroute_flow_6_increasing_0_S_left.1 tripinfo_flow_6_increasing_0_S_left.1" vType="moto" speedFactor="1.08" vaporized=""/>
    <tripinfo id="flow_11_increasing_0_E_right.1" depart="102.00" departLane="N_in_1" departPos="118.54" departSpeed="10.72" departDelay="0.48" arrival="129.00" arrivalLane="N_out_1" arrivalPos="189.60" arrivalSpeed="11.12" duration="27.00" routeLength="265.33" waitingTime="0.00" waitingCount="0" stopTime="0.00" timeLoss="4.24" rerouteNo="0" devices="vehroute_flow_11_increasing_0_E_right.1 tripinfo_flow_11_increasing_0_E_right.1" vType="moto" speedFactor="0.88" vaporized=""/>
    <tripinfo id="flow_14_increasing_0_W_left.1" depart="100.00" departLane="N_in_0" departPos="69.24" departSpeed="6.06" departDelay="0.50" arrival="130.00" arrivalLane="N_out_1" arrivalPos="189.60" arrivalSpeed="13.25" duration="30.00" routeLength="314.63" waitingTime="0.00" waitingCount="0" stopTime="0.00" timeLoss="7.44" rerouteNo="0" devices="vehroute_flow_14_increasing_0_W_left.1 tripinfo_flow_14_increasing_0_W_left.1" vType="moto" speedFactor="1.05" vaporized=""/>
    <tripinfo id="flow_15_increasing_0_W_right.1" depart="99.00" departLane="W_in_1" departPos="128.68" departSpeed="3.06" departDelay="0.96" arrival="133.00" arrivalLane="S_out_0" arrivalPos="189.60" arrivalSpeed="13.56" duration="34.00" routeLength="259.55" waitingTime="8.00" waitingCount="1" stopTime="0.00" timeLoss="14.92" rerouteNo="0" devices="vehroute_flow_15_increasing_0_W_right.1 tripinfo_flow_15_increasing_0_W_right.1" vType="moto" speedFactor="1.04" vaporized=""/>
    <tripinfo id="flow_7_increasing_0_S_right.1" depart="98.00" departLane="S_in_1" departPos="66.71" departSpeed="7.87" departDelay="0.44" arrival="134.00" arrivalLane="E_out_0" arrivalPos="189.60" arrivalSpeed="10.37" duration="36.00" routeLength="321.52" waitingTime="0.00" waitingCount="0" stopTime="0.00" timeLoss="5.26" rerouteNo="0" devices="vehroute_flow_7_increasing_0_S_right.1 tripinfo_flow_7_increasing_0_S_right.1" vType="container" speedFactor="0.78" vaporized=""/>
    <tripinfo id="flow_10_increasing_0_E_left.1" depart="102.00" departLane="E_in_1" departPos="57.40" departSpeed="0.26" departDelay="0.48" arrival="141.00" arrivalLane="S_out_0" arrivalPos="189.60" arrivalSpeed="10.64" duration="39.00" routeLength="341.15" waitingTime="0.00" waitingCount="0" stopTime="0.00" timeLoss="5.77" rerouteNo="0" devices="vehroute_flow_10_increasing_0_E_left.1 tripinfo_flow_10_increasing_0_E_left.1" vType="car" speedFactor="0.77" vaporized=""/>
    <tripinfo id="flow_5_increasing_0_S_straight.3" depart="120.00" departLane="W_in_0" departPos="125.48" departSpeed="6.98" departDelay="0.60" arrival="141.00" arrivalLane="E_out_0" arrivalPos="189.60" arrivalSpeed="14.08" duration="21.00" routeLength="274.52" waitingTime="0.00" waitingCount="0" stopTime="0.00" timeLoss="1.82" rerouteNo="0" devices="vehroute_flow_5_increasing_0_S_straight.3 tripinfo_flow_5_increasing_0_S_straight.3" vType="moto" speedFactor="1.08" vaporized=""/>
    <tripinfo id="flow_9_increasing_0_E_straight.3" depart="116.00" departLane="E_in_0" departPos="132.62" departSpeed="4.06" departDelay="0.61" arrival="142.00" arrivalLane="W_out_0" arrivalPos="189.60" arrivalSpeed="11.12" duration="26.00" routeLength="267.38" waitingTime="0.00" waitingCount="0" stopTime="0.00" timeLoss="3.18" rerouteNo="0" devices="vehroute_flow_9_increasing_0_E_straight.3 tripinfo_flow_9_increasing_0_E_straight.3" vType="truck" speedFactor="0.85" vaporized=""/>
    <tripinfo id="flow_2_increasing_0_N_left.1" depart="98.00" departLane="N_in_0" departPos="8.88" departSpeed="2.82" departDelay="0.44" arrival="145.00" arrivalLane="E_out_1" arrivalPos="189.60" arrivalSpeed="14.65" duration="47.00" routeLength="389.67" waitingTime="12.00" waitingCount="1" stopTime="0.00" timeLoss="21.59" rerouteNo="0" devices="vehroute_flow_2_increasing_0_N_left.1 tripinfo_flow_2_increasing_0_N_left.1" vType="moto" speedFactor="1.12" vaporized=""/>
    <tripinfo id="flow_1_increasing_0_N_straight.3" depart="126.00" departLane="N_in_0" departPos="26.76" departSpeed="10.48" departDelay="0.35" arrival="153.00" arrivalLane="S_out_0" arrivalPos="189.60" arrivalSpeed="13.58" duration="27.00" routeLength="373.24" waitingTime="0.00" waitingCount="0" stopTime="0.00" timeLoss="1.45" rerouteNo="0" devices="vehroute_flow_1_increasing_0_N_straight.3 tripinfo_flow_1_increasing_0_N_straight.3" vType="moto" speedFactor="1.06" vaporized=""/>
    <tripinfo id="flow_3_increasing_0_N_right.1" depart="105.00" departLane="N_in_1" departPos="56.18" departSpeed="6.26" departDelay="0.83" arrival="157.00" arrivalLane="W_out_0" arrivalPos="189.60" arrivalSpeed="12.41" duration="52.00" routeLength="332.05" waitingTime="8.00" waitingCount="1" stopTime="0.00" timeLoss="24.97" rerouteNo="0" devices="vehroute_flow_3_increasing_0_N_right.1 tripinfo_flow_3_increasing_0_N_right.1" vType="container" speedFactor="0.91" vaporized=""/>
    <tripinfo id="flow_13_increasing_0_W_straight.3" depart="122.00" departLane="W_in_1" departPos="135.04" departSpeed="4.50" departDelay="0.79" arrival="159.00" arrivalLane="E_out_0" arrivalPos="189.60" arrivalSpeed="15.89" duration="37.00" routeLength="264.96" waitingTime="11.00" waitingCount="1" stopTime="0.00" timeLoss="19.69" rerouteNo="0" devices="vehroute_flow_13_increasing_0_W_straight.3 tripinfo_flow_13_increasing_0_W_straight.3" vType="moto" speedFactor="1.20" vaporized=""/>
    <tripinfo id="flow_1_increasing_0_N_straight.4" depart="168.00" departLane="N_in_0" departPos="125.76" departSpeed="4.61" departDelay="0.46" arrival="191.00" arrivalLane="S_out_0" arrivalPos="189.60" arrivalSpeed="12.78" duration="23.00" routeLength="274.24" waitingTime="0.00" waitingCount="0" stopTime="0.00" timeLoss="1.82" rerouteNo="0" devices="vehroute_flow_1_increasing_0_N_straight.4 tripinfo_flow_1_increasing_0_N_straight.4" vType="car" speedFactor="0.96" vaporized=""/>
    <tripinfo id="flow_13_increasing_0_W_straight.4" depart="162.00" departLane="W_in_1" departPos="29.12" departSpeed="10.21" departDelay="0.38" arrival="198.00" arrivalLane="E_out_0" arrivalPos="189.60" arrivalSpeed="11.91" duration="36.00" routeLength="370.88" waitingTime="0.00" waitingCount="0" stopTime="0.00" timeLoss="5.30" rerouteNo="0" devices="vehroute_flow_13_increasing_0_W_straight.4 tripinfo_flow_13_increasing_0_W_straight.4" vType="truck" speedFactor="0.87" vaporized=""/>
    <tripinfo id="flow_9_increasing_0_E_straight.4" depart="154.00" departLane="E_in_0" departPos="91.01" departSpeed="4.92" departDelay="0.15" arrival="200.00" arrivalLane="W_out_0" arrivalPos="189.60" arrivalSpeed="12.64" duration="46.00" routeLength="308.99" waitingTime="9.00" waitingCount="1" stopTime="0.00" timeLoss="22.22" rerouteNo="0" devices="vehroute_flow_9_increasing_0_E_straight.4 tripinfo_flow_9_increasing_0_E_straight.4" vType="bus" speedFactor="0.95" vaporized=""/>
    <tripinfo id="flow_5_increasing_0_S_straight.4" depart="160.00" departLane="W_in_0" departPos="128.04" departSpeed="5.27" departDelay="0.80" arrival="206.00" arrivalLane="E_out_0" arrivalPos="189.60" arrivalSpeed="13.06" duration="46.00" routeLength="271.96" waitingTime="7.00" waitingCount="1" stopTime="0.00" timeLoss="25.41" rerouteNo="0" devices="vehroute_flow_5_increasing_0_S_straight.4 tripinfo_flow_5_increasing_0_S_straight.4" vType="container" speedFactor="0.97" vaporized=""/>
    <tripinfo id="flow_7_increasing_0_S_right.2" depart="196.00" departLane="S_in_0" departPos="185.99" departSpeed="0.20" departDelay="0.88" arrival="219.00" arrivalLane="E_out_0" arrivalPos="189.60" arrivalSpeed="12.60" duration="23.00" routeLength="202.24" waitingTime="2.00" waitingCount="1" stopTime="0.00" timeLoss="7.54" rerouteNo="0" devices="vehroute_flow_7_increasing_0_S_right.2 tripinfo_flow_7_increasing_0_S_right.2" vType="car" speedFactor="0.99" vaporized=""/>
    <tripinfo id="flow_4_increasing_0_N_uturn.1" depart="192.00" departLane="N_in_0" departPos="52.57" departSpeed="8.42" departDelay="0.61" arrival="226.00" arrivalLane="N_out_1" arrivalPos="189.60" arrivalSpeed="13.02" duration="34.00" routeLength="331.30" waitingTime="0.00" waitingCount="0" stopTime="0.00" timeLoss="9.63" rerouteNo="0" devices="vehroute_flow_4_increasing_0_N_uturn.1 tripinfo_flow_4_increasing_0_N_uturn.1" vType="moto" speedFactor="1.03" vaporized=""/>
    <tripinfo id="flow_2_increasing_0_N_left.2" depart="196.00" departLane="N_in_0" departPos="179.13" departSpeed="5.99" departDelay="0.88" arrival="227.00" arrivalLane="E_out_1" arrivalPos="189.60" arrivalSpeed="12.07" duration="31.00" routeLength="219.42" waitingTime="0.00" waitingCount="0" stopTime="0.00" timeLoss="12.49" rerouteNo="0" devices="vehroute_flow_2_increasing_0_N_left.2 tripinfo_flow_2_increasing_0_N_left.2" vType="container" speedFactor="0.90" vaporized=""/>
    <tripinfo id="flow_9_increasing_0_E_straight.5" depart="193.00" departLane="E_in_1" departPos="112.37" departSpeed="9.43" departDelay="0.69" arrival="232.00" arrivalLane="W_out_0" arrivalPos="189.60" arrivalSpeed="13.54" duration="39.00" routeLength="287.63" waitingTime="13.00" waitingCount="1" stopTime="0.00" timeLoss="18.10" rerouteNo="0" devices="vehroute_flow_9_increasing_0_E_straight.5 tripinfo_flow_9_increasing_0_E_straight.5" vType="moto" speedFactor="1.00" vaporized=""/>
    <tripinfo id="flow_16_increasing_0_W_uturn.1" depart="195.00" departLane="W_in_1" departPos="162.40" departSpeed="1.63" departDelay="0.83" arrival="232.00" arrivalLane="W_out_1" arrivalPos="189.60" arrivalSpeed="15.48" duration="37.00" routeLength="221.47" waitingTime="11.00" waitingCount="1" stopTime="0.00" timeLoss="21.34" rerouteNo="0" devices="vehroute_flow_16_increasing_0_W_uturn.1 tripinfo_flow_16_increasing_0_W_uturn.1" vType="moto" speedFactor="1.14" vaporized=""/>
    <tripinfo id="flow_15_increasing_0_W_right.2" depart="197.00" departLane="W_in_0" departPos="171.28" departSpeed="6.39" departDelay="0.92" arrival="232.00" arrivalLane="S_out_0" arrivalPos="189.60" arrivalSpeed="12.49" duration="35.00" routeLength="216.95" waitingTime="12.00" waitingCount="1" stopTime="0.00" timeLoss="17.96" rerouteNo="0" devices="vehroute_flow_15_increasing_0_W_right.2 tripinfo_flow_15_increasing_0_W_right.2" vType="moto" speedFactor="0.95" vaporized=""/>
    <tripinfo id="flow_13_increasing_0_W_straight.5" depart="203.00" departLane="W_in_1" departPos="155.35" departSpeed="12.62" departDelay="0.98" arrival="233.00" arrivalLane="E_out_1" arrivalPos="189.60" arrivalSpeed="14.24" duration="30.00" routeLength="244.65" waitingTime="5.00" waitingCount="1" stopTime="0.00" timeLoss="12.59" rerouteNo="0" devices="vehroute_flow_13_increasing_0_W_straight.5 tripinfo_flow_13_increasing_0_W_straight.5" vType="moto" speedFactor="1.07" vaporized=""/>
    <tripinfo id="flow_5_increasing_0_S_straight.5" depart="200.00" departLane="W_in_0" departPos="0.16" departSpeed="4.42" departDelay="1.00" arrival="234.00" arrivalLane="E_out_0" arrivalPos="189.60" arrivalSpeed="11.83" duration="34.00" routeLength="399.84" waitingTime="0.00" waitingCount="0" stopTime="0.00" timeLoss="2.93" rerouteNo="0" devices="vehroute_flow_5_increasing_0_S_straight.5 tripinfo_flow_5_increasing_0_S_straight.5" vType="moto" speedFactor="0.94" vaporized=""/>
    <tripinfo id="flow_10_increasing_0_E_left.2" depart="204.00" departLane="E_in_0" departPos="92.42" departSpeed="15.81" departDelay="0.95" arrival="238.00" arrivalLane="S_out_1" arrivalPos="189.60" arrivalSpeed="15.42" duration="34.00" routeLength="306.13" waitingTime="3.00" waitingCount="2" stopTime="0.00" timeLoss="13.97" rerouteNo="0" devices="vehroute_flow_10_increasing_0_E_left.2 tripinfo_flow_10_increasing_0_E_left.2" vType="moto" speedFactor="1.14" vaporized=""/>
    <tripinfo id="flow_12_increasing_0_E_uturn.1" depart="198.00" departLane="E_in_0" departPos="151.29" departSpeed="4.27" departDelay="0.96" arrival="239.00" arrivalLane="E_out_1" arrivalPos="189.60" arrivalSpeed="11.27" duration="41.00" routeLength="232.58" waitingTime="12.00" waitingCount="2" stopTime="0.00" timeLoss="21.07" rerouteNo="0" devices="vehroute_flow_12_increasing_0_E_uturn.1 tripinfo_flow_12_increasing_0_E_uturn.1" vType="moto" speedFactor="0.89" vaporized=""/>
    <tripinfo id="flow_1_increasing_0_N_straight.5" depart="210.00" departLane="N_in_0" departPos="61.32" departSpeed="6.85" departDelay="0.58" arrival="244.00" arrivalLane="S_out_0" arrivalPos="189.60" arrivalSpeed="14.57" duration="34.00" routeLength="338.68" waitingTime="4.00" waitingCount="1" stopTime="0.00" timeLoss="11.22" rerouteNo="0" devices="vehroute_flow_1_increasing_0_N_straight.5 tripinfo_flow_1_increasing_0_N_straight.5" vType="moto" speedFactor="1.10" vaporized=""/>
    <tripinfo id="flow_14_increasing_0_W_left.2" depart="200.00" departLane="N_in_0" departPos="78.09" departSpeed="11.73" departDelay="1.00" arrival="246.00" arrivalLane="N_out_1" arrivalPos="189.60" arrivalSpeed="11.70" duration="46.00" routeLength="305.78" waitingTime="14.00" waitingCount="1" stopTime="0.00" timeLoss="20.57" rerouteNo="0" devices="vehroute_flow_14_increasing_0_W_left.2 tripinfo_flow_14_increasing_0_W_left.2" vType="car" speedFactor="0.93" vaporized=""/>
    <tripinfo id="flow_11_increasing_0_E_right.2" depart="204.00" departLane="N_in_0" departPos="87.76" departSpeed="11.32" departDelay="0.95" arrival="247.00" arrivalLane="N_out_1" arrivalPos="189.60" arrivalSpeed="13.18" duration="43.00" routeLength="296.11" waitingTime="11.00" waitingCount="1" stopTime="0.00" timeLoss="21.68" rerouteNo="0" devices="vehroute_flow_11_increasing_0_E_right.2 tripinfo_flow_11_increasing_0_E_right.2" vType="moto" speedFactor="1.04" vaporized=""/>
    <tripinfo id="flow_6_increasing_0_S_left.2" depart="200.00" departLane="S_in_0" departPos="2.21" departSpeed="13.11" departDelay="1.00" arrival="248.00" arrivalLane="W_out_1" arrivalPos="189.60" arrivalSpeed="14.10" duration="48.00" routeLength="396.34" waitingTime="12.00" waitingCount="2" stopTime="0.00" timeLoss="19.28" rerouteNo="0" devices="vehroute_flow_6_increasing_0_S_left.2 tripinfo_flow_6_increasing_0_S_left.2" vType="moto" speedFactor="1.03" vaporized=""/>
    <tripinfo id="flow_3_increasing_0_N_right.2" depart="209.00" departLane="N_in_1" departPos="39.34" departSpeed="4.17" departDelay="0.67" arrival="248.00" arrivalLane="W_out_0" arrivalPos="189.60" arrivalSpeed="11.48" duration="39.00" routeLength="348.89" waitingTime="1.00" waitingCount="1" stopTime="0.00" timeLoss="10.09" rerouteNo="0" devices="vehroute_flow_3_increasing_0_N_right.2 tripinfo_flow_3_increasing_0_N_right.2" vType="moto" speedFactor="0.90" vaporized=""/>
    <tripinfo id="flow_8_increasing_0_S_uturn.1" depart="211.00" departLane="S_in_0" departPos="69.49" departSpeed="5.55" departDelay="0.47" arrival="251.00" arrivalLane="S_out_1" arrivalPos="189.60" arrivalSpeed="12.44" duration="40.00" routeLength="314.38" waitingTime="5.00" waitingCount="2" stopTime="0.00" timeLoss="13.49" rerouteNo="0" devices="vehroute_flow_8_increasing_0_S_uturn.1 tripinfo_flow_8_increasing_0_S_uturn.1" vType="car" speedFactor="0.90" vaporized=""/>
    <tripinfo id="flow_9_increasing_0_E_straight.6" depart="231.00" departLane="E_in_1" departPos="109.89" departSpeed="2.24" departDelay="0.23" arrival="256.00" arrivalLane="W_out_0" arrivalPos="189.60" arrivalSpeed="13.42" duration="25.00" routeLength="290.11" waitingTime="0.00" waitingCount="0" stopTime="0.00" timeLoss="3.83" rerouteNo="0" devices="vehroute_flow_9_increasing_0_E_straight.6 tripinfo_flow_9_increasing_0_E_straight.6" vType="moto" speedFactor="1.02" vaporized=""/>
    <tripinfo id="flow_5_increasing_0_S_straight.6" depart="239.00" departLane="W_in_1" departPos="21.74" departSpeed="12.05" departDelay="0.19" arrival="265.00" arrivalLane="E_out_1" arrivalPos="189.60" arrivalSpeed="14.58" duration="26.00" routeLength="378.26" waitingTime="0.00" waitingCount="0" stopTime="0.00" timeLoss="1.17" rerouteNo="0" devices="vehroute_flow_5_increasing_0_S_straight.6 tripinfo_flow_5_increasing_0_S_straight.6" vType="moto" speedFactor="1.10" vaporized=""/>
    <tripinfo id="flow_13_increasing_0_W_straight.6" depart="243.00" departLane="W_in_0" departPos="43.18" departSpeed="3.05" departDelay="0.58" arrival="273.00" arrivalLane="E_out_0" arrivalPos="189.60" arrivalSpeed="13.34" duration="30.00" routeLength="356.82" waitingTime="0.00" waitingCount="0" stopTime="0.00" timeLoss="3.04" rerouteNo="0" devices="vehroute_flow_13_increasing_0_W_straight.6 tripinfo_flow_13_increasing_0_W_straight.6" vType="moto" speedFactor="0.97" vaporized=""/>