<?xml version="1.0" encoding="UTF-8"?>

<!-- generated on 2025-12-09 23:48:31 by Eclipse SUMO sumo Version 1.18.0
<configuration xmlns:xsi="http://www.w3.org/2001/XMLSchema-instance" xsi:noNamespaceSchemaLocation="http://sumo.dlr.de/xsd/sumoConfiguration.xsd">

    <input>
        <net-file value="nets/120p4k/net.net.xml"/>
        <route-files value="nets/120p4k/route_temp_784_139142733854512_59322201.rou.xml"/>
    </input>

    <output>
        <summary-output value="result_ddqn_1.5_0.1/summary_ep_9.xml"/>
        <tripinfo-output value="result_ddqn_1.5_0.1/tripinfo_ep_9.xml"/>
        <vehroute-output value="result_ddqn_1.5_0.1/vehroute_ep_9.xml"/>
    </output>

    <time>
        <begin value="0"/>
    </time>

    <report>
        <verbose value="true"/>
        <no-warnings value="true"/>
        <no-step-log value="true"/>
    </report>

    <traci_server>
        <remote-port value="58099"/>
    </traci_server>

    <gui_only>
        <gui-settings-file value="nets/120p4k/gui-settings.xml"/>
        <quit-on-end value="true"/>
    </gui_only>

</configuration>
-->

<tripinfos xmlns:xsi="http://www.w3.org/2001/XMLSchema-instance" xsi:noNamespaceSchemaLocation="http://sumo.dlr.de/xsd/tripinfo_file.xsd">
    <tripinfo id="flow_8_increasing_0_S_uturn.0" depart="0.00" departLane="S_in_0" departPos="120.11" departSpeed="4.48" departDelay="0.00" arrival="24.00" arrivalLane="S_out_1" arrivalPos="189.60" arrivalSpeed="13.35" duration="24.00" routeLength="263.76" waitingTime="0.00" waitingCount="0" stopTime="0.00" timeLoss="4.86" rerouteNo="0" devices="vehroute_flow_8_increasing_0_S_uturn.0 tripinfo_flow_8_increasing_0_S_uturn.0" vType="moto" speedFactor="1.05" vaporized=""/>
    <tripinfo id="flow_4_increasing_0_N_uturn.0" depart="0.00" departLane="N_in_1" departPos="127.60" departSpeed="0.08" departDelay="0.00" arrival="28.00" arrivalLane="N_out_1" arrivalPos="189.60" arrivalSpeed="11.57" duration="28.00" routeLength="256.27" waitingTime="0.00" waitingCount="0" stopTime="0.00" timeLoss="6.18" rerouteNo="0" devices="vehroute_flow_4_increasing_0_N_uturn.0 tripinfo_flow_4_increasing_0_N_uturn.0" vType="moto" speedFactor="0.91" vaporized=""/>
    <tripinfo id="flow_5_increasing_0_S_straight.0" depart="0.00" departLane="N_in_1" departPos="107.37" departSpeed="7.21" departDelay="0.00" arrival="29.00" arrivalLane="N_out_1" arrivalPos="189.60" arrivalSpeed="13.99" duration="29.00" routeLength="276.50" waitingTime="0.00" waitingCount="0" stopTime="0.00" timeLoss="10.59" rerouteNo="0" devices="vehroute_flow_5_increasing_0_S_straight.0 tripinfo_flow_5_increasing_0_S_straight.0" vType="moto" speedFactor="1.15" vaporized=""/>
    <tripinfo id="flow_3_increasing_0_N_right.0" depart="0.00" departLane="N_in_0" departPos="103.38" departSpeed="3.81" departDelay="0.00" arrival="30.00" arrivalLane="E_out_1" arrivalPos="189.60" arrivalSpeed="14.57" duration="30.00" routeLength="295.17" waitingTime="0.00" waitingCount="0" stopTime="0.00" timeLoss="9.86" rerouteNo="0" devices="vehroute_flow_3_increasing_0_N_right.0 tripinfo_flow_3_increasing_0_N_right.0" vType="moto" speedFactor="1.11" vaporized=""/>
    <tripinfo id="flow_7_increasing_0_S_right.0" depart="0.00" departLane="S_in_0" departPos="8.76" departSpeed="8.47" departDelay="0.00" arrival="36.00" arrivalLane="E_out_0" arrivalPos="189.60" arrivalSpeed="11.68" duration="36.00" routeLength="379.47" waitingTime="0.00" waitingCount="0" stopTime="0.00" timeLoss="3.91" rerouteNo="0" devices="vehroute_flow_7_increasing_0_S_right.0 tripinfo_flow_7_increasing_0_S_right.0" vType="bus" speedFactor="0.89" vaporized=""/>
    <tripinfo id="flow_16_increasing_0_W_uturn.0" depart="0.00" departLane="W_in_0" departPos="135.67" departSpeed="9.64" departDelay="0.00" arrival="36.00" arrivalLane="W_out_1" arrivalPos="189.60" arrivalSpeed="14.00" duration="36.00" routeLength="248.20" waitingTime="9.00" waitingCount="1" stopTime="0.00" timeLoss="17.59" rerouteNo="0" devices="vehroute_flow_16_increasing_0_W_uturn.0 tripinfo_flow_16_increasing_0_W_uturn.0" vType="moto" speedFactor="1.04" vaporized=""/>
    <tripinfo id="flow_9_increasing_0_E_straight.0" depart="0.00" departLane="E_in_0" departPos="168.29" departSpeed="10.73" departDelay="0.00" arrival="37.00" arrivalLane="W_out_0" arrivalPos="189.60" arrivalSpeed="11.84" duration="37.00" routeLength="231.71" waitingTime="13.00" waitingCount="1" stopTime="0.00" timeLoss="18.85" rerouteNo="0" devices="vehroute_flow_9_increasing_0_E_straight.0 tripinfo_flow_9_increasing_0_E_straight.0" vType="car" speedFactor="0.94" vaporized=""/>
    <tripinfo id="flow_2_increasing_0_N_left.0" depart="0.00" departLane="W_in_1" departPos="8.27" departSpeed="8.33" departDelay="0.00" arrival="38.00" arrivalLane="E_out_0" arrivalPos="189.60" arrivalSpeed="12.86" duration="38.00" routeLength="391.73" waitingTime="4.00" waitingCount="1" stopTime="0.00" timeLoss="10.16" rerouteNo="0" devices="vehroute_flow_2_increasing_0_N_left.0 tripinfo_flow_2_increasing_0_N_left.0" vType="moto" speedFactor="1.02" vaporized=""/>
    <tripinfo id="flow_14_increasing_0_W_left.0" depart="0.00" departLane="W_in_1" departPos="42.31" departSpeed="3.71" departDelay="0.00" arrival="38.00" arrivalLane="N_out_1" arrivalPos="189.60" arrivalSpeed="13.44" duration="38.00" routeLength="356.24" waitingTime="3.00" waitingCount="1" stopTime="0.00" timeLoss="11.72" rerouteNo="0" devices="vehroute_flow_14_increasing_0_W_left.0 tripinfo_flow_14_increasing_0_W_left.0" vType="moto" speedFactor="1.01" vaporized=""/>
    <tripinfo id="flow_15_increasing_0_W_right.0" depart="0.00" departLane="W_in_1" departPos="153.90" departSpeed="6.73" departDelay="0.00" arrival="39.00" arrivalLane="S_out_0" arrivalPos="189.60" arrivalSpeed="10.97" duration="39.00" routeLength="234.33" waitingTime="10.00" waitingCount="1" stopTime="0.00" timeLoss="17.74" rerouteNo="0" devices="vehroute_flow_15_increasing_0_W_right.0 tripinfo_flow_15_increasing_0_W_right.0" vType="moto" speedFactor="0.85" vaporized=""/>
    <tripinfo id="flow_6_increasing_0_S_left.0" depart="0.00" departLane="E_in_1" departPos="166.01" departSpeed="0.74" departDelay="0.00" arrival="40.00" arrivalLane="N_out_0" arrivalPos="189.60" arrivalSpeed="11.88" duration="40.00" routeLength="222.22" waitingTime="11.00" waitingCount="1" stopTime="0.00" timeLoss="20.38" rerouteNo="0" devices="vehroute_flow_6_increasing_0_S_left.0 tripinfo_flow_6_increasing_0_S_left.0" vType="moto" speedFactor="0.88" vaporized=""/>
    <tripinfo id="flow_10_increasing_0_E_left.0" depart="0.00" departLane="E_in_0" departPos="44.88" departSpeed="8.19" departDelay="0.00" arrival="41.00" arrivalLane="S_out_1" arrivalPos="189.60" arrivalSpeed="14.14" duration="41.00" routeLength="353.67" waitingTime="5.00" waitingCount="2" stopTime="0.00" timeLoss="16.67" rerouteNo="0" devices="vehroute_flow_10_increasing_0_E_left.0 tripinfo_flow_10_increasing_0_E_left.0" vType="car" speedFactor="1.08" vaporized=""/>
    <tripinfo id="flow_12_increasing_0_E_uturn.0" depart="0.00" departLane="E_in_0" departPos="5.65" departSpeed="13.76" departDelay="0.00" arrival="42.00" arrivalLane="E_out_1" arrivalPos="189.60" arrivalSpeed="13.31" duration="42.00" routeLength="378.22" waitingTime="5.00" waitingCount="2" stopTime="0.00" timeLoss="14.89" rerouteNo="0" devices="vehroute_flow_12_increasing_0_E_uturn.0 tripinfo_flow_12_increasing_0_E_uturn.0" vType="moto" speedFactor="1.03" vaporized=""/>
    <tripinfo id="flow_11_increasing_0_E_right.0" depart="0.00" departLane="E_in_1" departPos="144.95" departSpeed="4.02" departDelay="0.00" arrival="43.00" arrivalLane="N_out_0" arrivalPos="189.60" arrivalSpeed="13.05" duration="43.00" routeLength="243.28" waitingTime="10.00" waitingCount="1" stopTime="0.00" timeLoss="23.06" rerouteNo="0" devices="vehroute_flow_11_increasing_0_E_right.0 tripinfo_flow_11_increasing_0_E_right.0" vType="bus" speedFactor="0.96" vaporized=""/>
    <tripinfo id="flow_13_increasing_0_W_straight.0" depart="0.00" departLane="N_in_0" departPos="77.99" departSpeed="3.97" departDelay="0.00" arrival="53.00" arrivalLane="N_out_0" arrivalPos="189.60" arrivalSpeed="11.96" duration="53.00" routeLength="305.88" waitingTime="13.00" waitingCount="2" stopTime="0.00" timeLoss="26.19" rerouteNo="0" devices="vehroute_flow_13_increasing_0_W_straight.0 tripinfo_flow_13_increasing_0_W_straight.0" vType="bus" speedFactor="0.86" vaporized=""/>
    <tripinfo id="flow_1_increasing_0_N_straight.0" depart="0.00" departLane="N_in_0" departPos="8.62" departSpeed="8.51" departDelay="0.00" arrival="55.00" arrivalLane="S_out_0" arrivalPos="189.60" arrivalSpeed="11.26" duration="55.00" routeLength="391.38" waitingTime="12.00" waitingCount="1" stopTime="0.00" timeLoss="21.55" rerouteNo="0" devices="vehroute_flow_1_increasing_0_N_straight.0 tripinfo_flow_1_increasing_0_N_straight.0" vType="truck" speedFactor="0.86" vaporized=""/>
    <tripinfo id="flow_9_increasing_0_E_straight.1" depart="39.00" departLane="E_in_1" departPos="177.29" departSpeed="8.41" departDelay="0.54" arrival="61.00" arrivalLane="W_out_0" arrivalPos="189.60" arrivalSpeed="15.69" duration="22.00" routeLength="222.71" waitingTime="1.00" waitingCount="1" stopTime="0.00" timeLoss="7.69" rerouteNo="0" devices="vehroute_flow_9_increasing_0_E_straight.1 tripinfo_flow_9_increasing_0_E_straight.1" vType="moto" speedFactor="1.16" vaporized=""/>
    <tripinfo id="flow_13_increasing_0_W_straight.1" depart="41.00" departLane="N_in_1" departPos="181.05" departSpeed="2.69" departDelay="0.60" arrival="72.00" arrivalLane="N_out_1" arrivalPos="189.60" arrivalSpeed="14.88" duration="31.00" routeLength="202.82" waitingTime="11.00" waitingCount="1" stopTime="0.00" timeLoss="17.75" rerouteNo="0" devices="vehroute_flow_13_increasing_0_W_straight.1 tripinfo_flow_13_increasing_0_W_straight.1" vType="moto" speedFactor="1.19" vaporized=""/>
    <tripinfo id="flow_1_increasing_0_N_straight.1" depart="42.00" departLane="N_in_1" departPos="28.79" departSpeed="10.22" departDelay="0.12" arrival="73.00" arrivalLane="S_out_0" arrivalPos="189.60" arrivalSpeed="15.74" duration="31.00" routeLength="371.21" waitingTime="0.00" waitingCount="0" stopTime="0.00" timeLoss="7.42" rerouteNo="0" devices="vehroute_flow_1_increasing_0_N_straight.1 tripinfo_flow_1_increasing_0_N_straight.1" vType="moto" speedFactor="1.15" vaporized=""/>
    <tripinfo id="flow_5_increasing_0_S_straight.1" depart="40.00" departLane="N_in_0" departPos="93.39" departSpeed="3.73" departDelay="0.20" arrival="79.00" arrivalLane="N_out_1" arrivalPos="189.60" arrivalSpeed="12.02" duration="39.00" routeLength="290.48" waitingTime="4.00" waitingCount="1" stopTime="0.00" timeLoss="13.36" rerouteNo="0" devices="vehroute_flow_5_increasing_0_S_straight.1 tripinfo_flow_5_increasing_0_S_straight.1" vType="moto" speedFactor="0.87" vaporized=""/>
    <tripinfo id="flow_9_increasing_0_E_straight.2" depart="77.00" departLane="E_in_1" departPos="103.67" departSpeed="3.85" departDelay="0.08" arrival="114.00" arrivalLane="W_out_0" arrivalPos="189.60" arrivalSpeed="13.61" duration="37.00" routeLength="296.33" waitingTime="6.00" waitingCount="1" stopTime="0.00" timeLoss="15.21" rerouteNo="0" devices="vehroute_flow_9_increasing_0_E_straight.2 tripinfo_flow_9_increasing_0_E_straight.2" vType="moto" speedFactor="0.99" vaporized=""/>
    <tripinfo id="flow_1_increasing_0_N_straight.2" depart="84.00" departLane="N_in_1" departPos="39.28" departSpeed="7.32" departDelay="0.23" arrival="128.00" arrivalLane="S_out_0" arrivalPos="189.60" arrivalSpeed="12.77" duration="44.00" routeLength="360.72" waitingTime="5.00" waitingCount="1" stopTime="0.00" timeLoss="15.91" rerouteNo="0" devices="vehroute_flow_1_increasing_0_N_straight.2 tripinfo_flow_1_increasing_0_N_straight.2" vType="moto" speedFactor="0.93" vaporized=""/>
    <tripinfo id="flow_13_increasing_0_W_straight.2" depart="81.00" departLane="N_in_1" departPos="64.28" departSpeed="4.21" departDelay="0.19" arrival="129.00" arrivalLane="N_out_1" arrivalPos="189.60" arrivalSpeed="12.77" duration="48.00" routeLength="319.59" waitingTime="11.00" waitingCount="1" stopTime="0.00" timeLoss="23.44" rerouteNo="0" devices="vehroute_flow_13_increasing_0_W_straight.2 tripinfo_flow_13_increasing_0_W_straight.2" vType="truck" speedFactor="0.97" vaporized=""/>
    <tripinfo id="flow_5_increasing_0_S_straight.2" depart="80.00" departLane="N_in_0" departPos="33.93" departSpeed="0.90" departDelay="0.40" arrival="132.00" arrivalLane="N_out_1" arrivalPos="189.60" arrivalSpeed="12.97" duration="52.00" routeLength="349.94" waitingTime="9.00" waitingCount="1" stopTime="0.00" timeLoss="24.51" rerouteNo="0" devices="vehroute_flow_5_increasing_0_S_straight.2 tripinfo_flow_5_increasing_0_S_straight.2" vType="moto" speedFactor="0.96" vaporized=""/>
    <tripinfo id="flow_3_increasing_0_N_right.1" depart="105.00" departLane="N_in_0" departPos="93.41" departSpeed="11.76" departDelay="0.83" arrival="138.00" arrivalLane="E_out_1" arrivalPos="189.60" arrivalSpeed="12.57" duration="33.00" routeLength="305.14" waitingTime="0.00" waitingCount="0" stopTime="0.00" timeLoss="8.12" rerouteNo="0" devices="vehroute_flow_3_increasing_0_N_right.1 tripinfo_flow_3_increasing_0_N_right.1" vType="container" speedFactor="0.91" vaporized=""/>
    <tripinfo id="flow_7_increasing_0_S_right.1" depart="98.00" departLane="S_in_0" departPos="54.99" departSpeed="3.84" departDelay="0.44" arrival="139.00" arrivalLane="E_out_0" arrivalPos="189.60" arrivalSpeed="10.56" duration="41.00" routeLength="333.24" waitingTime="0.00" waitingCount="0" stopTime="0.00" timeLoss="8.82" rerouteNo="0" devices="vehroute_flow_7_increasing_0_S_right.1 tripinfo_flow_7_increasing_0_S_right.1" vType="container" speedFactor="0.78" vaporized=""/>
    <tripinfo id="flow_15_increasing_0_W_right.1" depart="99.00" departLane="W_in_0" departPos="80.24" departSpeed="9.78" departDelay="0.96" arrival="139.00" arrivalLane="S_out_0" arrivalPos="189.60" arrivalSpeed="13.68" duration="40.00" routeLength="307.99" waitingTime="11.00" waitingCount="1" stopTime="0.00" timeLoss="17.43" rerouteNo="0" devices="vehroute_flow_15_increasing_0_W_right.1 tripinfo_flow_15_increasing_0_W_right.1" vType="moto" speedFactor="1.04" vaporized=""/>
    <tripinfo id="flow_2_increasing_0_N_left.1" depart="98.00" departLane="W_in_0" departPos="15.17" departSpeed="0.73" departDelay="0.44" arrival="141.00" arrivalLane="E_out_0" arrivalPos="189.60" arrivalSpeed="15.02" duration="43.00" routeLength="384.83" waitingTime="6.00" waitingCount="1" stopTime="0.00" timeLoss="17.87" rerouteNo="0" devices="vehroute_flow_2_increasing_0_N_left.1 tripinfo_flow_2_increasing_0_N_left.1" vType="moto" speedFactor="1.12" vaporized=""/>
    <tripinfo id="flow_11_increasing_0_E_right.1" depart="102.00" departLane="E_in_0" departPos="166.00" departSpeed="1.28" departDelay="0.48" arrival="141.00" arrivalLane="N_out_0" arrivalPos="189.60" arrivalSpeed="12.10" duration="39.00" routeLength="222.23" waitingTime="12.00" waitingCount="1" stopTime="0.00" timeLoss="19.95" rerouteNo="0" devices="vehroute_flow_11_increasing_0_E_right.1 tripinfo_flow_11_increasing_0_E_right.1" vType="moto" speedFactor="0.88" vaporized=""/>
    <tripinfo id="flow_6_increasing_0_S_left.1" depart="100.00" departLane="E_in_1" departPos="97.23" departSpeed="5.84" departDelay="0.50" arrival="142.00" arrivalLane="N_out_0" arrivalPos="189.60" arrivalSpeed="13.55" duration="42.00" routeLength="291.00" waitingTime="11.00" waitingCount="1" stopTime="0.00" timeLoss="21.86" rerouteNo="0" devices="vehroute_flow_6_increasing_0_S_left.1 tripinfo_flow_6_increasing_0_S_left.1" vType="moto" speedFactor="1.08" vaporized=""/>
    <tripinfo id="flow_9_increasing_0_E_straight.3" depart="116.00" departLane="E_in_0" departPos="86.42" departSpeed="8.41" departDelay="0.61" arrival="146.00" arrivalLane="W_out_0" arrivalPos="189.60" arrivalSpeed="11.21" duration="30.00" routeLength="313.58" waitingTime="0.00" waitingCount="0" stopTime="0.00" timeLoss="2.82" rerouteNo="0" devices="vehroute_flow_9_increasing_0_E_straight.3 tripinfo_flow_9_increasing_0_E_straight.3" vType="truck" speedFactor="0.85" vaporized=""/>
    <tripinfo id="flow_14_increasing_0_W_left.1" depart="100.00" departLane="W_in_1" departPos="79.10" departSpeed="8.50" departDelay="0.50" arrival="148.00" arrivalLane="N_out_1" arrivalPos="189.60" arrivalSpeed="13.63" duration="48.00" routeLength="319.45" waitingTime="12.00" waitingCount="2" stopTime="0.00" timeLoss="24.54" rerouteNo="0" devices="vehroute_flow_14_increasing_0_W_left.1 tripinfo_flow_14_increasing_0_W_left.1" vType="moto" speedFactor="1.05" vaporized=""/>
    <tripinfo id="flow_10_increasing_0_E_left.1" depart="102.00" departLane="E_in_0" departPos="4.52" departSpeed="10.46" departDelay="0.48" arrival="149.00" arrivalLane="S_out_0" arrivalPos="189.60" arrivalSpeed="10.09" duration="47.00" routeLength="394.03" waitingTime="2.00" waitingCount="1" stopTime="0.00" timeLoss="8.89" rerouteNo="0" devices="vehroute_flow_10_increasing_0_E_left.1 tripinfo_flow_10_increasing_0_E_left.1" vType="car" speedFactor="0.77" vaporized=""/>
    <tripinfo id="flow_5_increasing_0_S_straight.3" depart="120.00" departLane="N_in_0" departPos="184.19" departSpeed="4.95" departDelay="0.60" arrival="151.00" arrivalLane="N_out_1" arrivalPos="189.60" arrivalSpeed="14.57" duration="31.00" routeLength="199.68" waitingTime="12.00" waitingCount="1" stopTime="0.00" timeLoss="17.24" rerouteNo="0" devices="vehroute_flow_5_increasing_0_S_straight.3 tripinfo_flow_5_increasing_0_S_straight.3" vType="moto" speedFactor="1.08" vaporized=""/>
    <tripinfo id="flow_13_increasing_0_W_straight.3" depart="122.00" departLane="N_in_0" departPos="65.01" departSpeed="6.58" departDelay="0.79" arrival="153.00" arrivalLane="N_out_1" arrivalPos="189.60" arrivalSpeed="15.44" duration="31.00" routeLength="318.86" waitingTime="1.00" waitingCount="1" stopTime="0.00" timeLoss="9.78" rerouteNo="0" devices="vehroute_flow_13_increasing_0_W_straight.3 tripinfo_flow_13_increasing_0_W_straight.3" vType="moto" speedFactor="1.20" vaporized=""/>
    <tripinfo id="flow_1_increasing_0_N_straight.3" depart="126.00" departLane="N_in_1" departPos="88.42" departSpeed="1.49" departDelay="0.35" arrival="156.00" arrivalLane="S_out_0" arrivalPos="189.60" arrivalSpeed="14.19" duration="30.00" routeLength="311.58" waitingTime="0.00" waitingCount="0" stopTime="0.00" timeLoss="7.85" rerouteNo="0" devices="vehroute_flow_1_increasing_0_N_straight.3 tripinfo_flow_1_increasing_0_N_straight.3" vType="moto" speedFactor="1.06" vaporized=""/>
    <tripinfo id="flow_5_increasing_0_S_straight.4" depart="160.00" departLane="N_in_0" departPos="135.24" departSpeed="1.68" departDelay="0.80" arrival="193.00" arrivalLane="N_out_1" arrivalPos="189.60" arrivalSpeed="13.11" duration="33.00" routeLength="248.63" waitingTime="0.00" waitingCount="0" stopTime="0.00" timeLoss="13.14" rerouteNo="0" devices="vehroute_flow_5_increasing_0_S_straight.4 tripinfo_flow_5_increasing_0_S_straight.4" vType="container" speedFactor="0.97" vaporized=""/>
    <tripinfo id="flow_1_increasing_0_N_straight.4" depart="168.00" departLane="N_in_1" departPos="74.07" departSpeed="0.57" departDelay="0.46" arrival="197.00" arrivalLane="S_out_0" arrivalPos="189.60" arrivalSpeed="12.90" duration="29.00" routeLength="325.93" waitingTime="0.00" waitingCount="0" stopTime="0.00" timeLoss="4.50" rerouteNo="0" devices="vehroute_flow_1_increasing_0_N_straight.4 tripinfo_flow_1_increasing_0_N_straight.4" vType="car" speedFactor="0.96" vaporized=""/>
    <tripinfo id="flow_13_increasing_0_W_straight.4" depart="162.00" departLane="N_in_0" departPos="70.46" departSpeed="10.65" departDelay="0.38" arrival="200.00" arrivalLane="N_out_0" arrivalPos="189.60" arrivalSpeed="11.82" duration="38.00" routeLength="313.41" waitingTime="0.00" waitingCount="0" stopTime="0.00" timeLoss="10.29" rerouteNo="0" devices="vehroute_flow_13_increasing_0_W_straight.4 tripinfo_flow_13_increasing_0_W_straight.4" vType="truck" speedFactor="0.87" vaporized=""/>
    <tripinfo id="flow_9_increasing_0_E_straight.4" depart="154.00" departLane="E_in_1" departPos="53.32" departSpeed="10.34" departDelay="0.15" arrival="207.00" arrivalLane="W_out_0" arrivalPos="189.60" arrivalSpeed="12.97" duration="53.00" routeLength="346.68" waitingTime="15.00" waitingCount="1" stopTime="0.00" timeLoss="26.32" rerouteNo="0" devices="vehroute_flow_9_increasing_0_E_straight.4 tripinfo_flow_9_increasing_0_E_straight.4" vType="bus" speedFactor="0.95" vaporized=""/>
    <tripinfo id="flow_15_increasing_0_W_right.2" depart="197.00" departLane="W_in_0" departPos="179.13" departSpeed="10.86" departDelay="0.92" arrival="216.00" arrivalLane="S_out_0" arrivalPos="189.60" arrivalSpeed="12.49" duration="19.00" routeLength="209.10" waitingTime="0.00" waitingCount="0" stopTime="0.00" timeLoss="2.48" rerouteNo="0" devices="vehroute_flow_15_increasing_0_W_right.2 tripinfo_flow_15_increasing_0_W_right.2" vType="moto" speedFactor="0.95" vaporized=""/>
    <tripinfo id="flow_9_increasing_0_E_straight.5" depart="193.00" departLane="E_in_1" departPos="65.33" departSpeed="12.53" departDelay="0.69" arrival="219.00" arrivalLane="W_out_1" arrivalPos="189.60" arrivalSpeed="12.91" duration="26.00" routeLength="334.67" waitingTime="0.00" waitingCount="0" stopTime="0.00" timeLoss="1.14" rerouteNo="0" devices="vehroute_flow_9_increasing_0_E_straight.5 tripinfo_flow_9_increasing_0_E_straight.5" vType="moto" speedFactor="1.00" vaporized=""/>
    <tripinfo id="flow_12_increasing_0_E_uturn.1" depart="198.00" departLane="E_in_0" departPos="185.99" departSpeed="0.18" departDelay="0.96" arrival="220.00" arrivalLane="E_out_1" arrivalPos="189.60" arrivalSpeed="11.77" duration="22.00" routeLength="197.88" waitingTime="0.00" waitingCount="0" stopTime="0.00" timeLoss="4.45" rerouteNo="0" devices="vehroute_flow_12_increasing_0_E_uturn.1 tripinfo_flow_12_increasing_0_E_uturn.1" vType="moto" speedFactor="0.89" vaporized=""/>
    <tripinfo id="flow_16_increasing_0_W_uturn.1" depart="195.00" departLane="W_in_1" departPos="111.69" departSpeed="6.85" departDelay="0.83" arrival="221.00" arrivalLane="W_out_1" arrivalPos="189.60" arrivalSpeed="15.19" duration="26.00" routeLength="272.18" waitingTime="0.00" waitingCount="0" stopTime="0.00" timeLoss="7.66" rerouteNo="0" devices="vehroute_flow_16_increasing_0_W_uturn.1 tripinfo_flow_16_increasing_0_W_uturn.1" vType="moto" speedFactor="1.14" vaporized=""/>
    <tripinfo id="flow_4_increasing_0_N_uturn.1" depart="192.00" departLane="N_in_1" departPos="160.30" departSpeed="13.98" departDelay="0.61" arrival="225.00" arrivalLane="N_out_1" arrivalPos="189.60" arrivalSpeed="13.28" duration="33.00" routeLength="223.57" waitingTime="10.00" waitingCount="1" stopTime="0.00" timeLoss="15.98" rerouteNo="0" devices="vehroute_flow_4_increasing_0_N_uturn.1 tripinfo_flow_4_increasing_0_N_uturn.1" vType="moto" speedFactor="1.03" vaporized=""/>
    <tripinfo id="flow_7_increasing_0_S_right.2" depart="196.00" departLane="S_in_1" departPos="162.40" departSpeed="1.41" departDelay="0.88" arrival="225.00" arrivalLane="E_out_0" arrivalPos="189.60" arrivalSpeed="13.44" duration="29.00" routeLength="225.83" waitingTime="3.00" waitingCount="1" stopTime="0.00" timeLoss="11.33" rerouteNo="0" devices="vehroute_flow_7_increasing_0_S_right.2 tripinfo_flow_7_increasing_0_S_right.2" vType="car" speedFactor="0.99" vaporized=""/>
    <tripinfo id="flow_5_increasing_0_S_straight.5" depart="200.00" departLane="N_in_0" departPos="171.28" departSpeed="6.29" departDelay="1.00" arrival="228.00" arrivalLane="N_out_1" arrivalPos="189.60" arrivalSpeed="11.84" duration="28.00" routeLength="212.59" waitingTime="3.00" waitingCount="1" stopTime="0.00" timeLoss="10.28" rerouteNo="0" devices="vehroute_flow_5_increasing_0_S_straight.5 tripinfo_flow_5_increasing_0_S_straight.5" vType="moto" speedFactor="0.94" vaporized=""/>
    <tripinfo id="flow_1_increasing_0_N_straight.5" depart="210.00" departLane="N_in_0" departPos="87.76" departSpeed="12.03" departDelay="0.58" arrival="232.00" arrivalLane="S_out_0" arrivalPos="189.60" arrivalSpeed="14.57" duration="22.00" routeLength="312.24" waitingTime="0.00" waitingCount="0" stopTime="0.00" timeLoss="1.07" rerouteNo="0" devices="vehroute_flow_1_increasing_0_N_straight.5 tripinfo_flow_1_increasing_0_N_straight.5" vType="moto" speedFactor="1.10" vaporized=""/>
    <tripinfo id="flow_6_increasing_0_S_left.2" depart="200.00" departLane="E_in_0" departPos="151.29" departSpeed="4.93" departDelay="1.00" arrival="237.00" arrivalLane="N_out_0" arrivalPos="189.60" arrivalSpeed="13.29" duration="37.00" routeLength="236.94" waitingTime="14.00" waitingCount="1" stopTime="0.00" timeLoss="19.80" rerouteNo="0" devices="vehroute_flow_6_increasing_0_S_left.2 tripinfo_flow_6_increasing_0_S_left.2" vType="moto" speedFactor="1.03" vaporized=""/>
    <tripinfo id="flow_14_increasing_0_W_left.2" depart="200.00" departLane="W_in_0" departPos="0.16" departSpeed="4.37" departDelay="1.00" arrival="239.00" arrivalLane="N_out_1" arrivalPos="189.60" arrivalSpeed="11.68" duration="39.00" routeLength="398.39" waitingTime="0.00" waitingCount="0" stopTime="0.00" timeLoss="7.25" rerouteNo="0" devices="vehroute_flow_14_increasing_0_W_left.2 tripinfo_flow_14_increasing_0_W_left.2" vType="car" speedFactor="0.93" vaporized=""/>
    <tripinfo id="flow_11_increasing_0_E_right.2" depart="204.00" departLane="E_in_1" departPos="155.35" departSpeed="12.29" departDelay="0.95" arrival="239.00" arrivalLane="N_out_0" arrivalPos="189.60" arrivalSpeed="13.83" duration="35.00" routeLength="232.88" waitingTime="11.00" waitingCount="1" stopTime="0.00" timeLoss="17.75" rerouteNo="0" devices="vehroute_flow_11_increasing_0_E_right.2 tripinfo_flow_11_increasing_0_E_right.2" vType="moto" speedFactor="1.04" vaporized=""/>
    <tripinfo id="flow_2_increasing_0_N_left.2" depart="196.00" departLane="W_in_1" departPos="112.37" departSpeed="4.61" departDelay="0.88" arrival="247.00" arrivalLane="E_out_0" arrivalPos="189.60" arrivalSpeed="12.30" duration="51.00" routeLength="287.63" waitingTime="10.00" waitingCount="1" stopTime="0.00" timeLoss="27.13" rerouteNo="0" devices="vehroute_flow_2_increasing_0_N_left.2 tripinfo_flow_2_increasing_0_N_left.2" vType="container" speedFactor="0.90" vaporized=""/>
    <tripinfo id="flow_10_increasing_0_E_left.2" depart="204.00" departLane="E_in_0" departPos="78.09" departSpeed="14.42" departDelay="0.95" arrival="247.00" arrivalLane="S_out_1" arrivalPos="189.60" arrivalSpeed="14.60" duration="43.00" routeLength="320.46" waitingTime="10.00" waitingCount="2" stopTime="0.00" timeLoss="21.44" rerouteNo="0" devices="vehroute_flow_10_increasing_0_E_left.2 tripinfo_flow_10_increasing_0_E_left.2" vType="moto" speedFactor="1.14" vaporized=""/>
    <tripinfo id="flow_13_increasing_0_W_straight.5" depart="203.00" departLane="N_in_0" departPos="2.21" departSpeed="13.62" departDelay="0.98" arrival="252.00" arrivalLane="N_out_1" arrivalPos="189.60" arrivalSpeed="13.91" duration="49.00" routeLength="381.66" waitingTime="12.00" waitingCount="1" stopTime="0.00" timeLoss="21.94" rerouteNo="0" devices="vehroute_flow_13_increasing_0_W_straight.5 tripinfo_flow_13_increasing_0_W_straight.5" vType="moto" speedFactor="1.07" vaporized=""/>
    <tripinfo id="flow_3_increasing_0_N_right.2" depart="209.00" departLane="N_in_0" departPos="92.42" departSpeed="12.50" departDelay="0.67" arrival="253.00" arrivalLane="E_out_1" arrivalPos="189.60" arrivalSpeed="12.49" duration="44.00" routeLength="306.13" waitingTime="13.00" waitingCount="1" stopTime="0.00" timeLoss="18.31" rerouteNo="0" devices="vehroute_flow_3_increasing_0_N_right.2 tripinfo_flow_3_increasing_0_N_right.2" vType="moto" speedFactor="0.90" vaporized=""/>
    <tripinfo id="flow_8_increasing_0_S_uturn.1" depart="211.00" departLane="S_in_1" departPos="39.34" departSpeed="4.15" departDelay="0.47" arrival="253.00" arrivalLane="S_out_1" arrivalPos="189.60" arrivalSpeed="12.10" duration="42.00" routeLength="344.53" waitingTime="4.00" waitingCount="1" stopTime="0.00" timeLoss="13.02" rerouteNo="0" devices="vehroute_flow_8_increasing_0_S_uturn.1 tripinfo_flow_8_increasing_0_S_uturn.1" vType="car" speedFactor="0.90" vaporized=""/>
    <tripinfo id="flow_5_increasing_0_S_straight.6" depart="239.00" departLane="N_in_0" departPos="69.49" departSpeed="6.79" departDelay="0.19" arrival="266.00" arrivalLane="N_out_1" arrivalPos="189.60" arrivalSpeed="14.13" duration="27.00" routeLength="314.38" waitingTime="0.00" waitingCount="0" stopTime="0.00" timeLoss="5.45" rerouteNo="0" devices="vehroute_flow_5_increasing_0_S_straight.6 tripinfo_flow_5_increasing_0_S_straight.6" vType="moto" speedFactor="1.10" vaporized=""/>
    <tripinfo id="flow_9_increasing_0_E_straight.6" depart="231.00" departLane="E_in_0" departPos="61.32" departSpeed="6.33" departDelay="0.23" arrival="274.00" arrivalLane="W_out_0" arrivalPos="189.60" arrivalSpeed="13.66" duration="43.00" routeLength="338.68" waitingTime="11.00" waitingCount="1" stopTime="0.00" timeLoss="19.04" rerouteNo="0" devices="vehroute_flow_9_increasing_0_E_straight.6 tripinfo_flow_9_increasing_0_E_straight.6" vType="moto" speedFactor="1.02" vaporized=""/>
    <tripinfo id="flow_13_increasing_0_W_straight.6" depart="243.00" departLane="N_in_1" departPos="109.89" departSpeed="2.13" departDelay="0.58" arrival="287.00" arrivalLane="N_out_1" arrivalPos="189.60" arrivalSpeed="12.89" duration="44.00" routeLength="273.98" waitingTime="14.00" waitingCount="1" stopTime="0.00" timeLoss="22.58" rerouteNo="0" devices="vehroute_flow_13_increasing_0_W_straight.6 tripinfo_flow_13_increasing_0_W_straight.6" vType="moto" speedFactor="0.97" vaporized=""/>