<?xml version="1.0" encoding="UTF-8"?>

<!-- generated on 2025-12-09 23:46:32 by Eclipse SUMO sumo Version 1.18.0
<configuration xmlns:xsi="http://www.w3.org/2001/XMLSchema-instance" xsi:noNamespaceSchemaLocation="http://sumo.dlr.de/xsd/sumoConfiguration.xsd">

    <input>
        <net-file value="nets/120p4k/net.net.xml"/>
        <route-files value="nets/120p4k/route_temp_784_139142733854512_59322201.rou.xml"/>
    </input>

    <output>
        <summary-output value="result_ddqn_1.5_0.1/summary_ep_7.xml"/>
        <tripinfo-output value="result_ddqn_1.5_0.1/tripinfo_ep_7.xml"/>
        <vehroute-output value="result_ddqn_1.5_0.1/vehroute_ep_7.xml"/>
    </output>

    <time>
        <begin value="0"/>
    </time>

    <report>
        <verbose value="true"/>
        <no-warnings value="true"/>
        <no-step-log value="true"/>
    </report>

    <traci_server>
        <remote-port value="44947"/>
    </traci_server>

    <gui_only>
        <gui-settings-file value="nets/120p4k/gui-settings.xml"/>
        <quit-on-end value="true"/>
    </gui_only>

</configuration>
-->

<tripinfos xmlns:xsi="http://www.w3.org/2001/XMLSchema-instance" xsi:noNamespaceSchemaLocation="http://sumo.dlr.de/xsd/tripinfo_file.xsd">
    <tripinfo id="flow_12_increasing_0_E_uturn.0" depart="0.00" departLane="N_in_0" departPos="129.89" departSpeed="13.76" departDelay="0.00" arrival="22.00" arrivalLane="W_out_0" arrivalPos="189.60" arrivalSpeed="14.08" duration="22.00" routeLength="258.34" waitingTime="0.00" waitingCount="0" stopTime="0.00" timeLoss="2.98" rerouteNo="0" devices="vehroute_flow_12_increasing_0_E_uturn.0 tripinfo_flow_12_increasing_0_E_uturn.0" vType="moto" speedFactor="1.03" vaporized=""/>
    <tripinfo id="flow_3_increasing_0_N_right.0" depart="0.00" departLane="N_in_0" departPos="103.38" departSpeed="3.81" departDelay="0.00" arrival="24.00" arrivalLane="W_out_0" arrivalPos="189.60" arrivalSpeed="14.73" duration="24.00" routeLength="284.85" waitingTime="0.00" waitingCount="0" stopTime="0.00" timeLoss="4.73" rerouteNo="0" devices="vehroute_flow_3_increasing_0_N_right.0 tripinfo_flow_3_increasing_0_N_right.0" vType="moto" speedFactor="1.11" vaporized=""/>
    <tripinfo id="flow_8_increasing_0_S_uturn.0" depart="0.00" departLane="S_in_0" departPos="120.11" departSpeed="4.48" departDelay="0.00" arrival="24.00" arrivalLane="S_out_1" arrivalPos="189.60" arrivalSpeed="13.35" duration="24.00" routeLength="263.76" waitingTime="0.00" waitingCount="0" stopTime="0.00" timeLoss="4.90" rerouteNo="0" devices="vehroute_flow_8_increasing_0_S_uturn.0 tripinfo_flow_8_increasing_0_S_uturn.0" vType="moto" speedFactor="1.05" vaporized=""/>
    <tripinfo id="flow_5_increasing_0_S_straight.0" depart="0.00" departLane="S_in_1" departPos="107.37" departSpeed="7.21" departDelay="0.00" arrival="25.00" arrivalLane="N_out_1" arrivalPos="189.60" arrivalSpeed="15.67" duration="25.00" routeLength="292.63" waitingTime="0.00" waitingCount="0" stopTime="0.00" timeLoss="6.12" rerouteNo="0" devices="vehroute_flow_5_increasing_0_S_straight.0 tripinfo_flow_5_increasing_0_S_straight.0" vType="moto" speedFactor="1.15" vaporized=""/>
    <tripinfo id="flow_6_increasing_0_S_left.0" depart="0.00" departLane="S_in_1" departPos="166.01" departSpeed="0.74" departDelay="0.00" arrival="25.00" arrivalLane="W_out_1" arrivalPos="189.60" arrivalSpeed="11.57" duration="25.00" routeLength="232.54" waitingTime="0.00" waitingCount="0" stopTime="0.00" timeLoss="4.35" rerouteNo="0" devices="vehroute_flow_6_increasing_0_S_left.0 tripinfo_flow_6_increasing_0_S_left.0" vType="moto" speedFactor="0.88" vaporized=""/>
    <tripinfo id="flow_2_increasing_0_N_left.0" depart="0.00" departLane="N_in_1" departPos="8.27" departSpeed="8.33" departDelay="0.00" arrival="32.00" arrivalLane="E_out_1" arrivalPos="189.60" arrivalSpeed="13.27" duration="32.00" routeLength="390.28" waitingTime="0.00" waitingCount="0" stopTime="0.00" timeLoss="2.89" rerouteNo="0" devices="vehroute_flow_2_increasing_0_N_left.0 tripinfo_flow_2_increasing_0_N_left.0" vType="moto" speedFactor="1.02" vaporized=""/>
    <tripinfo id="flow_4_increasing_0_N_uturn.0" depart="0.00" departLane="N_in_1" departPos="127.60" departSpeed="0.08" departDelay="0.00" arrival="32.00" arrivalLane="N_out_1" arrivalPos="189.60" arrivalSpeed="12.27" duration="32.00" routeLength="256.27" waitingTime="1.00" waitingCount="1" stopTime="0.00" timeLoss="9.82" rerouteNo="0" devices="vehroute_flow_4_increasing_0_N_uturn.0 tripinfo_flow_4_increasing_0_N_uturn.0" vType="moto" speedFactor="0.91" vaporized=""/>
    <tripinfo id="flow_16_increasing_0_W_uturn.0" depart="0.00" departLane="W_in_0" departPos="126.68" departSpeed="11.71" departDelay="0.00" arrival="36.00" arrivalLane="W_out_1" arrivalPos="189.60" arrivalSpeed="14.32" duration="36.00" routeLength="257.19" waitingTime="10.00" waitingCount="1" stopTime="0.00" timeLoss="16.41" rerouteNo="0" devices="vehroute_flow_16_increasing_0_W_uturn.0 tripinfo_flow_16_increasing_0_W_uturn.0" vType="moto" speedFactor="1.04" vaporized=""/>
    <tripinfo id="flow_9_increasing_0_E_straight.0" depart="0.00" departLane="E_in_0" departPos="168.29" departSpeed="10.73" departDelay="0.00" arrival="37.00" arrivalLane="W_out_0" arrivalPos="189.60" arrivalSpeed="12.20" duration="37.00" routeLength="231.71" waitingTime="13.00" waitingCount="1" stopTime="0.00" timeLoss="19.01" rerouteNo="0" devices="vehroute_flow_9_increasing_0_E_straight.0 tripinfo_flow_9_increasing_0_E_straight.0" vType="car" speedFactor="0.94" vaporized=""/>
    <tripinfo id="flow_14_increasing_0_W_left.0" depart="0.00" departLane="W_in_1" departPos="50.07" departSpeed="13.54" departDelay="0.00" arrival="38.00" arrivalLane="N_out_1" arrivalPos="189.60" arrivalSpeed="13.91" duration="38.00" routeLength="348.48" waitingTime="4.00" waitingCount="1" stopTime="0.00" timeLoss="12.05" rerouteNo="0" devices="vehroute_flow_14_increasing_0_W_left.0 tripinfo_flow_14_increasing_0_W_left.0" vType="moto" speedFactor="1.01" vaporized=""/>
    <tripinfo id="flow_15_increasing_0_W_right.0" depart="0.00" departLane="W_in_1" departPos="108.38" departSpeed="1.98" departDelay="0.00" arrival="39.00" arrivalLane="S_out_0" arrivalPos="189.60" arrivalSpeed="11.14" duration="39.00" routeLength="279.85" waitingTime="5.00" waitingCount="1" stopTime="0.00" timeLoss="13.67" rerouteNo="0" devices="vehroute_flow_15_increasing_0_W_right.0 tripinfo_flow_15_increasing_0_W_right.0" vType="moto" speedFactor="0.85" vaporized=""/>
    <tripinfo id="flow_11_increasing_0_E_right.0" depart="0.00" departLane="E_in_1" departPos="144.95" departSpeed="4.02" departDelay="0.00" arrival="41.00" arrivalLane="N_out_0" arrivalPos="189.60" arrivalSpeed="12.61" duration="41.00" routeLength="243.28" waitingTime="11.00" waitingCount="1" stopTime="0.00" timeLoss="21.92" rerouteNo="0" devices="vehroute_flow_11_increasing_0_E_right.0 tripinfo_flow_11_increasing_0_E_right.0" vType="bus" speedFactor="0.96" vaporized=""/>
    <tripinfo id="flow_13_increasing_0_W_straight.0" depart="0.00" departLane="W_in_0" departPos="23.77" departSpeed="1.55" departDelay="0.00" arrival="41.00" arrivalLane="E_out_0" arrivalPos="189.60" arrivalSpeed="11.49" duration="41.00" routeLength="376.23" waitingTime="0.00" waitingCount="0" stopTime="0.00" timeLoss="9.11" rerouteNo="0" devices="vehroute_flow_13_increasing_0_W_straight.0 tripinfo_flow_13_increasing_0_W_straight.0" vType="bus" speedFactor="0.86" vaporized=""/>
    <tripinfo id="flow_10_increasing_0_E_left.0" depart="0.00" departLane="E_in_0" departPos="44.88" departSpeed="8.19" departDelay="0.00" arrival="42.00" arrivalLane="S_out_1" arrivalPos="189.60" arrivalSpeed="14.14" duration="42.00" routeLength="353.67" waitingTime="6.00" waitingCount="2" stopTime="0.00" timeLoss="17.88" rerouteNo="0" devices="vehroute_flow_10_increasing_0_E_left.0 tripinfo_flow_10_increasing_0_E_left.0" vType="car" speedFactor="1.08" vaporized=""/>
    <tripinfo id="flow_7_increasing_0_S_right.0" depart="0.00" departLane="S_in_0" departPos="8.76" departSpeed="8.47" departDelay="0.00" arrival="53.00" arrivalLane="E_out_0" arrivalPos="189.60" arrivalSpeed="11.96" duration="53.00" routeLength="379.47" waitingTime="13.00" waitingCount="1" stopTime="0.00" timeLoss="21.42" rerouteNo="0" devices="vehroute_flow_7_increasing_0_S_right.0 tripinfo_flow_7_increasing_0_S_right.0" vType="bus" speedFactor="0.89" vaporized=""/>
    <tripinfo id="flow_1_increasing_0_N_straight.0" depart="0.00" departLane="N_in_0" departPos="8.62" departSpeed="8.51" departDelay="0.00" arrival="55.00" arrivalLane="S_out_0" arrivalPos="189.60" arrivalSpeed="11.31" duration="55.00" routeLength="391.38" waitingTime="11.00" waitingCount="1" stopTime="0.00" timeLoss="22.12" rerouteNo="0" devices="vehroute_flow_1_increasing_0_N_straight.0 tripinfo_flow_1_increasing_0_N_straight.0" vType="truck" speedFactor="0.86" vaporized=""/>
    <tripinfo id="flow_9_increasing_0_E_straight.1" depart="39.00" departLane="E_in_0" departPos="131.13" departSpeed="9.54" departDelay="0.54" arrival="58.00" arrivalLane="W_out_0" arrivalPos="189.60" arrivalSpeed="15.96" duration="19.00" routeLength="268.87" waitingTime="0.00" waitingCount="0" stopTime="0.00" timeLoss="1.77" rerouteNo="0" devices="vehroute_flow_9_increasing_0_E_straight.1 tripinfo_flow_9_increasing_0_E_straight.1" vType="moto" speedFactor="1.16" vaporized=""/>
    <tripinfo id="flow_13_increasing_0_W_straight.1" depart="41.00" departLane="W_in_1" departPos="31.93" departSpeed="9.28" departDelay="0.60" arrival="66.00" arrivalLane="E_out_1" arrivalPos="189.60" arrivalSpeed="15.48" duration="25.00" routeLength="368.07" waitingTime="0.00" waitingCount="0" stopTime="0.00" timeLoss="1.23" rerouteNo="0" devices="vehroute_flow_13_increasing_0_W_straight.1 tripinfo_flow_13_increasing_0_W_straight.1" vType="moto" speedFactor="1.19" vaporized=""/>
    <tripinfo id="flow_1_increasing_0_N_straight.1" depart="42.00" departLane="N_in_1" departPos="121.65" departSpeed="2.92" departDelay="0.12" arrival="84.00" arrivalLane="S_out_0" arrivalPos="189.60" arrivalSpeed="15.87" duration="42.00" routeLength="278.35" waitingTime="14.00" waitingCount="1" stopTime="0.00" timeLoss="23.88" rerouteNo="0" devices="vehroute_flow_1_increasing_0_N_straight.1 tripinfo_flow_1_increasing_0_N_straight.1" vType="moto" speedFactor="1.15" vaporized=""/>
    <tripinfo id="flow_5_increasing_0_S_straight.1" depart="40.00" departLane="S_in_1" departPos="58.36" departSpeed="11.64" departDelay="0.20" arrival="87.00" arrivalLane="N_out_0" arrivalPos="189.60" arrivalSpeed="11.75" duration="47.00" routeLength="341.64" waitingTime="13.00" waitingCount="1" stopTime="0.00" timeLoss="18.43" rerouteNo="0" devices="vehroute_flow_5_increasing_0_S_straight.1 tripinfo_flow_5_increasing_0_S_straight.1" vType="moto" speedFactor="0.87" vaporized=""/>
    <tripinfo id="flow_9_increasing_0_E_straight.2" depart="77.00" departLane="E_in_1" departPos="52.87" departSpeed="0.38" departDelay="0.08" arrival="107.00" arrivalLane="W_out_0" arrivalPos="189.60" arrivalSpeed="13.57" duration="30.00" routeLength="347.13" waitingTime="0.00" waitingCount="0" stopTime="0.00" timeLoss="4.27" rerouteNo="0" devices="vehroute_flow_9_increasing_0_E_straight.2 tripinfo_flow_9_increasing_0_E_straight.2" vType="moto" speedFactor="0.99" vaporized=""/>
    <tripinfo id="flow_13_increasing_0_W_straight.2" depart="81.00" departLane="W_in_1" departPos="59.51" departSpeed="13.32" departDelay="0.19" arrival="108.00" arrivalLane="E_out_1" arrivalPos="189.60" arrivalSpeed="13.34" duration="27.00" routeLength="340.49" waitingTime="0.00" waitingCount="0" stopTime="0.00" timeLoss="0.82" rerouteNo="0" devices="vehroute_flow_13_increasing_0_W_straight.2 tripinfo_flow_13_increasing_0_W_straight.2" vType="truck" speedFactor="0.97" vaporized=""/>
    <tripinfo id="flow_5_increasing_0_S_straight.2" depart="80.00" departLane="S_in_1" departPos="12.70" departSpeed="12.41" departDelay="0.40" arrival="122.00" arrivalLane="N_out_0" arrivalPos="189.60" arrivalSpeed="12.81" duration="42.00" routeLength="387.30" waitingTime="7.00" waitingCount="1" stopTime="0.00" timeLoss="12.33" rerouteNo="0" devices="vehroute_flow_5_increasing_0_S_straight.2 tripinfo_flow_5_increasing_0_S_straight.2" vType="moto" speedFactor="0.96" vaporized=""/>
    <tripinfo id="flow_1_increasing_0_N_straight.2" depart="84.00" departLane="N_in_1" departPos="107.53" departSpeed="1.11" departDelay="0.23" arrival="122.00" arrivalLane="S_out_0" arrivalPos="189.60" arrivalSpeed="12.85" duration="38.00" routeLength="292.47" waitingTime="7.00" waitingCount="1" stopTime="0.00" timeLoss="15.19" rerouteNo="0" devices="vehroute_flow_1_increasing_0_N_straight.2 tripinfo_flow_1_increasing_0_N_straight.2" vType="moto" speedFactor="0.93" vaporized=""/>
    <tripinfo id="flow_6_increasing_0_S_left.1" depart="100.00" departLane="S_in_0" departPos="156.52" departSpeed="9.22" departDelay="0.50" arrival="123.00" arrivalLane="W_out_1" arrivalPos="189.60" arrivalSpeed="14.06" duration="23.00" routeLength="242.03" waitingTime="1.00" waitingCount="1" stopTime="0.00" timeLoss="6.05" rerouteNo="0" devices="vehroute_flow_6_increasing_0_S_left.1 tripinfo_flow_6_increasing_0_S_left.1" vType="moto" speedFactor="1.08" vaporized=""/>
    <tripinfo id="flow_2_increasing_0_N_left.1" depart="98.00" departLane="N_in_0" departPos="8.88" departSpeed="2.82" departDelay="0.44" arrival="128.00" arrivalLane="E_out_1" arrivalPos="189.60" arrivalSpeed="15.22" duration="30.00" routeLength="389.67" waitingTime="0.00" waitingCount="0" stopTime="0.00" timeLoss="4.18" rerouteNo="0" devices="vehroute_flow_2_increasing_0_N_left.1 tripinfo_flow_2_increasing_0_N_left.1" vType="moto" speedFactor="1.12" vaporized=""/>
    <tripinfo id="flow_15_increasing_0_W_right.1" depart="99.00" departLane="W_in_1" departPos="128.68" departSpeed="3.06" departDelay="0.96" arrival="133.00" arrivalLane="S_out_0" arrivalPos="189.60" arrivalSpeed="14.21" duration="34.00" routeLength="259.55" waitingTime="7.00" waitingCount="1" stopTime="0.00" timeLoss="15.35" rerouteNo="0" devices="vehroute_flow_15_increasing_0_W_right.1 tripinfo_flow_15_increasing_0_W_right.1" vType="moto" speedFactor="1.04" vaporized=""/>
    <tripinfo id="flow_14_increasing_0_W_left.1" depart="100.00" departLane="W_in_0" departPos="69.24" departSpeed="6.06" departDelay="0.50" arrival="133.00" arrivalLane="N_out_1" arrivalPos="189.60" arrivalSpeed="14.19" duration="33.00" routeLength="329.31" waitingTime="2.00" waitingCount="1" stopTime="0.00" timeLoss="9.74" rerouteNo="0" devices="vehroute_flow_14_increasing_0_W_left.1 tripinfo_flow_14_increasing_0_W_left.1" vType="moto" speedFactor="1.05" vaporized=""/>
    <tripinfo id="flow_3_increasing_0_N_right.1" depart="105.00" departLane="N_in_1" departPos="134.76" departSpeed="6.26" departDelay="0.83" arrival="133.00" arrivalLane="W_out_0" arrivalPos="189.60" arrivalSpeed="12.62" duration="28.00" routeLength="253.47" waitingTime="0.00" waitingCount="0" stopTime="0.00" timeLoss="7.35" rerouteNo="0" devices="vehroute_flow_3_increasing_0_N_right.1 tripinfo_flow_3_increasing_0_N_right.1" vType="container" speedFactor="0.91" vaporized=""/>
    <tripinfo id="flow_7_increasing_0_S_right.1" depart="98.00" departLane="S_in_1" departPos="66.71" departSpeed="7.87" departDelay="0.44" arrival="134.00" arrivalLane="E_out_0" arrivalPos="189.60" arrivalSpeed="10.84" duration="36.00" routeLength="321.52" waitingTime="0.00" waitingCount="0" stopTime="0.00" timeLoss="5.35" rerouteNo="0" devices="vehroute_flow_7_increasing_0_S_right.1 tripinfo_flow_7_increasing_0_S_right.1" vType="container" speedFactor="0.78" vaporized=""/>
    <tripinfo id="flow_11_increasing_0_E_right.1" depart="102.00" departLane="E_in_1" departPos="118.54" departSpeed="10.72" departDelay="0.48" arrival="135.00" arrivalLane="N_out_0" arrivalPos="189.60" arrivalSpeed="11.03" duration="33.00" routeLength="269.69" waitingTime="5.00" waitingCount="1" stopTime="0.00" timeLoss="10.16" rerouteNo="0" devices="vehroute_flow_11_increasing_0_E_right.1 tripinfo_flow_11_increasing_0_E_right.1" vType="moto" speedFactor="0.88" vaporized=""/>
    <tripinfo id="flow_10_increasing_0_E_left.1" depart="102.00" departLane="E_in_1" departPos="57.40" departSpeed="0.26" departDelay="0.48" arrival="140.00" arrivalLane="S_out_0" arrivalPos="189.60" arrivalSpeed="10.64" duration="38.00" routeLength="341.15" waitingTime="0.00" waitingCount="0" stopTime="0.00" timeLoss="4.95" rerouteNo="0" devices="vehroute_flow_10_increasing_0_E_left.1 tripinfo_flow_10_increasing_0_E_left.1" vType="car" speedFactor="0.77" vaporized=""/>
    <tripinfo id="flow_9_increasing_0_E_straight.3" depart="116.00" departLane="E_in_1" departPos="108.76" departSpeed="10.34" departDelay="0.61" arrival="142.00" arrivalLane="W_out_0" arrivalPos="189.60" arrivalSpeed="11.56" duration="26.00" routeLength="291.24" waitingTime="0.00" waitingCount="0" stopTime="0.00" timeLoss="1.03" rerouteNo="0" devices="vehroute_flow_9_increasing_0_E_straight.3 tripinfo_flow_9_increasing_0_E_straight.3" vType="truck" speedFactor="0.85" vaporized=""/>
    <tripinfo id="flow_13_increasing_0_W_straight.3" depart="122.00" departLane="W_in_0" departPos="19.25" departSpeed="11.19" departDelay="0.79" arrival="147.00" arrivalLane="E_out_0" arrivalPos="189.60" arrivalSpeed="14.79" duration="25.00" routeLength="380.75" waitingTime="0.00" waitingCount="0" stopTime="0.00" timeLoss="1.07" rerouteNo="0" devices="vehroute_flow_13_increasing_0_W_straight.3 tripinfo_flow_13_increasing_0_W_straight.3" vType="moto" speedFactor="1.20" vaporized=""/>
    <tripinfo id="flow_5_increasing_0_S_straight.3" depart="120.00" departLane="S_in_1" departPos="77.94" departSpeed="4.43" departDelay="0.60" arrival="156.00" arrivalLane="N_out_0" arrivalPos="189.60" arrivalSpeed="13.84" duration="36.00" routeLength="322.06" waitingTime="4.00" waitingCount="1" stopTime="0.00" timeLoss="14.17" rerouteNo="0" devices="vehroute_flow_5_increasing_0_S_straight.3 tripinfo_flow_5_increasing_0_S_straight.3" vType="moto" speedFactor="1.08" vaporized=""/>
    <tripinfo id="flow_1_increasing_0_N_straight.3" depart="126.00" departLane="N_in_0" departPos="148.08" departSpeed="9.73" departDelay="0.35" arrival="157.00" arrivalLane="S_out_0" arrivalPos="189.60" arrivalSpeed="13.58" duration="31.00" routeLength="251.92" waitingTime="6.00" waitingCount="1" stopTime="0.00" timeLoss="13.30" rerouteNo="0" devices="vehroute_flow_1_increasing_0_N_straight.3 tripinfo_flow_1_increasing_0_N_straight.3" vType="moto" speedFactor="1.06" vaporized=""/>
    <tripinfo id="flow_1_increasing_0_N_straight.4" depart="168.00" departLane="N_in_0" departPos="185.47" departSpeed="9.03" departDelay="0.46" arrival="185.00" arrivalLane="S_out_0" arrivalPos="189.60" arrivalSpeed="12.25" duration="17.00" routeLength="214.53" waitingTime="0.00" waitingCount="0" stopTime="0.00" timeLoss="0.85" rerouteNo="0" devices="vehroute_flow_1_increasing_0_N_straight.4 tripinfo_flow_1_increasing_0_N_straight.4" vType="car" speedFactor="0.96" vaporized=""/>
    <tripinfo id="flow_5_increasing_0_S_straight.4" depart="160.00" departLane="S_in_0" departPos="167.23" departSpeed="1.90" departDelay="0.80" arrival="187.00" arrivalLane="N_out_0" arrivalPos="189.60" arrivalSpeed="13.16" duration="27.00" routeLength="232.77" waitingTime="0.00" waitingCount="0" stopTime="0.00" timeLoss="9.11" rerouteNo="0" devices="vehroute_flow_5_increasing_0_S_straight.4 tripinfo_flow_5_increasing_0_S_straight.4" vType="container" speedFactor="0.97" vaporized=""/>
    <tripinfo id="flow_9_increasing_0_E_straight.4" depart="154.00" departLane="E_in_1" departPos="23.57" departSpeed="9.43" departDelay="0.15" arrival="211.00" arrivalLane="W_out_0" arrivalPos="189.60" arrivalSpeed="12.98" duration="57.00" routeLength="376.43" waitingTime="16.00" waitingCount="1" stopTime="0.00" timeLoss="27.92" rerouteNo="0" devices="vehroute_flow_9_increasing_0_E_straight.4 tripinfo_flow_9_increasing_0_E_straight.4" vType="bus" speedFactor="0.95" vaporized=""/>
    <tripinfo id="flow_13_increasing_0_W_straight.4" depart="162.00" departLane="W_in_0" departPos="8.08" departSpeed="5.80" departDelay="0.38" arrival="212.00" arrivalLane="E_out_0" arrivalPos="189.60" arrivalSpeed="12.01" duration="50.00" routeLength="391.92" waitingTime="7.00" waitingCount="1" stopTime="0.00" timeLoss="17.01" rerouteNo="0" devices="vehroute_flow_13_increasing_0_W_straight.4 tripinfo_flow_13_increasing_0_W_straight.4" vType="truck" speedFactor="0.87" vaporized=""/>
    <tripinfo id="flow_9_increasing_0_E_straight.5" depart="193.00" departLane="E_in_0" departPos="81.69" departSpeed="9.19" departDelay="0.69" arrival="218.00" arrivalLane="W_out_0" arrivalPos="189.60" arrivalSpeed="13.41" duration="25.00" routeLength="318.31" waitingTime="0.00" waitingCount="0" stopTime="0.00" timeLoss="1.50" rerouteNo="0" devices="vehroute_flow_9_increasing_0_E_straight.5 tripinfo_flow_9_increasing_0_E_straight.5" vType="moto" speedFactor="1.00" vaporized=""/>
    <tripinfo id="flow_15_increasing_0_W_right.2" depart="197.00" departLane="W_in_0" departPos="104.14" departSpeed="12.50" departDelay="0.92" arrival="222.00" arrivalLane="S_out_0" arrivalPos="189.60" arrivalSpeed="12.56" duration="25.00" routeLength="284.09" waitingTime="0.00" waitingCount="0" stopTime="0.00" timeLoss="2.54" rerouteNo="0" devices="vehroute_flow_15_increasing_0_W_right.2 tripinfo_flow_15_increasing_0_W_right.2" vType="moto" speedFactor="0.95" vaporized=""/>
    <tripinfo id="flow_10_increasing_0_E_left.2" depart="204.00" departLane="E_in_1" departPos="155.35" departSpeed="13.51" departDelay="0.95" arrival="222.00" arrivalLane="S_out_1" arrivalPos="189.60" arrivalSpeed="14.74" duration="18.00" routeLength="243.20" waitingTime="0.00" waitingCount="0" stopTime="0.00" timeLoss="1.60" rerouteNo="0" devices="vehroute_flow_10_increasing_0_E_left.2 tripinfo_flow_10_increasing_0_E_left.2" vType="moto" speedFactor="1.14" vaporized=""/>
    <tripinfo id="flow_16_increasing_0_W_uturn.1" depart="195.00" departLane="W_in_0" departPos="71.94" departSpeed="4.41" departDelay="0.83" arrival="223.00" arrivalLane="W_out_1" arrivalPos="189.60" arrivalSpeed="15.24" duration="28.00" routeLength="311.93" waitingTime="0.00" waitingCount="0" stopTime="0.00" timeLoss="7.02" rerouteNo="0" devices="vehroute_flow_16_increasing_0_W_uturn.1 tripinfo_flow_16_increasing_0_W_uturn.1" vType="moto" speedFactor="1.14" vaporized=""/>
    <tripinfo id="flow_14_increasing_0_W_left.2" depart="200.00" departLane="W_in_1" departPos="174.17" departSpeed="0.01" departDelay="1.00" arrival="223.00" arrivalLane="N_out_1" arrivalPos="189.60" arrivalSpeed="11.89" duration="23.00" routeLength="224.38" waitingTime="0.00" waitingCount="0" stopTime="0.00" timeLoss="4.29" rerouteNo="0" devices="vehroute_flow_14_increasing_0_W_left.2 tripinfo_flow_14_increasing_0_W_left.2" vType="car" speedFactor="0.93" vaporized=""/>
    <tripinfo id="flow_6_increasing_0_S_left.2" depart="200.00" departLane="S_in_1" departPos="89.17" departSpeed="11.39" departDelay="1.00" arrival="229.00" arrivalLane="W_out_1" arrivalPos="189.60" arrivalSpeed="13.19" duration="29.00" routeLength="309.38" waitingTime="0.00" waitingCount="0" stopTime="0.00" timeLoss="5.93" rerouteNo="0" devices="vehroute_flow_6_increasing_0_S_left.2 tripinfo_flow_6_increasing_0_S_left.2" vType="moto" speedFactor="1.03" vaporized=""/>
    <tripinfo id="flow_7_increasing_0_S_right.2" depart="196.00" departLane="S_in_0" departPos="121.56" departSpeed="11.75" departDelay="0.88" arrival="230.00" arrivalLane="E_out_0" arrivalPos="189.60" arrivalSpeed="12.53" duration="34.00" routeLength="266.67" waitingTime="5.00" waitingCount="1" stopTime="0.00" timeLoss="12.96" rerouteNo="0" devices="vehroute_flow_7_increasing_0_S_right.2 tripinfo_flow_7_increasing_0_S_right.2" vType="car" speedFactor="0.99" vaporized=""/>
    <tripinfo id="flow_12_increasing_0_E_uturn.1" depart="198.00" departLane="N_in_1" departPos="168.21" departSpeed="10.32" departDelay="0.96" arrival="231.00" arrivalLane="W_out_0" arrivalPos="189.60" arrivalSpeed="11.37" duration="33.00" routeLength="220.02" waitingTime="8.00" waitingCount="1" stopTime="0.00" timeLoss="13.90" rerouteNo="0" devices="vehroute_flow_12_increasing_0_E_uturn.1 tripinfo_flow_12_increasing_0_E_uturn.1" vType="moto" speedFactor="0.89" vaporized=""/>
    <tripinfo id="flow_5_increasing_0_S_straight.5" depart="200.00" departLane="S_in_0" departPos="31.76" departSpeed="11.77" departDelay="1.00" arrival="231.00" arrivalLane="N_out_1" arrivalPos="189.60" arrivalSpeed="13.02" duration="31.00" routeLength="368.24" waitingTime="0.00" waitingCount="0" stopTime="0.00" timeLoss="2.27" rerouteNo="0" devices="vehroute_flow_5_increasing_0_S_straight.5 tripinfo_flow_5_increasing_0_S_straight.5" vType="moto" speedFactor="0.94" vaporized=""/>
    <tripinfo id="flow_4_increasing_0_N_uturn.1" depart="192.00" departLane="N_in_1" departPos="171.48" departSpeed="2.19" departDelay="0.61" arrival="234.00" arrivalLane="N_out_1" arrivalPos="189.60" arrivalSpeed="14.20" duration="42.00" routeLength="212.39" waitingTime="17.00" waitingCount="2" stopTime="0.00" timeLoss="25.89" rerouteNo="0" devices="vehroute_flow_4_increasing_0_N_uturn.1 tripinfo_flow_4_increasing_0_N_uturn.1" vType="moto" speedFactor="1.03" vaporized=""/>
    <tripinfo id="flow_3_increasing_0_N_right.2" depart="209.00" departLane="N_in_0" departPos="87.76" departSpeed="9.83" departDelay="0.67" arrival="238.00" arrivalLane="W_out_0" arrivalPos="189.60" arrivalSpeed="11.93" duration="29.00" routeLength="300.47" waitingTime="0.00" waitingCount="0" stopTime="0.00" timeLoss="3.42" rerouteNo="0" devices="vehroute_flow_3_increasing_0_N_right.2 tripinfo_flow_3_increasing_0_N_right.2" vType="moto" speedFactor="0.90" vaporized=""/>
    <tripinfo id="flow_11_increasing_0_E_right.2" depart="204.00" departLane="E_in_0" departPos="92.42" departSpeed="14.40" departDelay="0.95" arrival="241.00" arrivalLane="N_out_0" arrivalPos="189.60" arrivalSpeed="13.77" duration="37.00" routeLength="295.81" waitingTime="8.00" waitingCount="1" stopTime="0.00" timeLoss="15.16" rerouteNo="0" devices="vehroute_flow_11_increasing_0_E_right.2 tripinfo_flow_11_increasing_0_E_right.2" vType="moto" speedFactor="1.04" vaporized=""/>
    <tripinfo id="flow_13_increasing_0_W_straight.5" depart="203.00" departLane="W_in_1" departPos="78.09" departSpeed="7.21" departDelay="0.98" arrival="242.00" arrivalLane="E_out_0" arrivalPos="189.60" arrivalSpeed="14.02" duration="39.00" routeLength="321.91" waitingTime="9.00" waitingCount="1" stopTime="0.00" timeLoss="16.45" rerouteNo="0" devices="vehroute_flow_13_increasing_0_W_straight.5 tripinfo_flow_13_increasing_0_W_straight.5" vType="moto" speedFactor="1.07" vaporized=""/>
    <tripinfo id="flow_2_increasing_0_N_left.2" depart="196.00" departLane="N_in_1" departPos="108.70" departSpeed="7.40" departDelay="0.88" arrival="244.00" arrivalLane="E_out_1" arrivalPos="189.60" arrivalSpeed="12.20" duration="48.00" routeLength="289.85" waitingTime="8.00" waitingCount="2" stopTime="0.00" timeLoss="23.27" rerouteNo="0" devices="vehroute_flow_2_increasing_0_N_left.2 tripinfo_flow_2_increasing_0_N_left.2" vType="container" speedFactor="0.90" vaporized=""/>
    <tripinfo id="flow_1_increasing_0_N_straight.5" depart="210.00" departLane="N_in_1" departPos="39.34" departSpeed="5.11" departDelay="0.58" arrival="254.00" arrivalLane="S_out_0" arrivalPos="189.60" arrivalSpeed="15.23" duration="44.00" routeLength="360.66" waitingTime="9.00" waitingCount="1" stopTime="0.00" timeLoss="20.06" rerouteNo="0" devices="vehroute_flow_1_increasing_0_N_straight.5 tripinfo_flow_1_increasing_0_N_straight.5" vType="moto" speedFactor="1.10" vaporized=""/>
    <tripinfo id="flow_8_increasing_0_S_uturn.1" depart="211.00" departLane="S_in_0" departPos="61.32" departSpeed="5.57" departDelay="0.47" arrival="257.00" arrivalLane="S_out_1" arrivalPos="189.60" arrivalSpeed="12.44" duration="46.00" routeLength="322.55" waitingTime="12.00" waitingCount="1" stopTime="0.00" timeLoss="18.65" rerouteNo="0" devices="vehroute_flow_8_increasing_0_S_uturn.1 tripinfo_flow_8_increasing_0_S_uturn.1" vType="car" speedFactor="0.90" vaporized=""/>
    <tripinfo id="flow_5_increasing_0_S_straight.6" depart="239.00" departLane="S_in_1" departPos="109.89" departSpeed="2.41" departDelay="0.19" arrival="262.00" arrivalLane="N_out_1" arrivalPos="189.60" arrivalSpeed="14.79" duration="23.00" routeLength="290.11" waitingTime="0.00" waitingCount="0" stopTime="0.00" timeLoss="3.32" rerouteNo="0" devices="vehroute_flow_5_increasing_0_S_straight.6 tripinfo_flow_5_increasing_0_S_straight.6" vType="moto" speedFactor="1.10" vaporized=""/>
    <tripinfo id="flow_9_increasing_0_E_straight.6" depart="231.00" departLane="E_in_0" departPos="69.49" departSpeed="6.31" departDelay="0.23" arrival="278.00" arrivalLane="W_out_0" arrivalPos="189.60" arrivalSpeed="13.59" duration="47.00" routeLength="330.51" waitingTime="16.00" waitingCount="1" stopTime="0.00" timeLoss="23.32" rerouteNo="0" devices="vehroute_flow_9_increasing_0_E_straight.6 tripinfo_flow_9_increasing_0_E_straight.6" vType="moto" speedFactor="1.02" vaporized=""/>
    <tripinfo id="flow_13_increasing_0_W_straight.6" depart="243.00" departLane="W_in_1" departPos="21.74" departSpeed="10.66" departDelay="0.58" arrival="279.00" arrivalLane="E_out_0" arrivalPos="189.60" arrivalSpeed="12.91" duration="36.00" routeLength="378.26" waitingTime="0.00" waitingCount="0" stopTime="0.00" timeLoss="7.27" rerouteNo="0" devices="vehroute_flow_13_increasing_0_W_straight.6 tripinfo_flow_13_increasing_0_W_straight.6" vType="moto" speedFactor="0.97" vaporized=""/>