<?xml version="1.0" encoding="UTF-8"?>

<!-- generated on 2025-12-09 23:45:32 by Eclipse SUMO sumo Version 1.18.0
<configuration xmlns:xsi="http://www.w3.org/2001/XMLSchema-instance" xsi:noNamespaceSchemaLocation="http://sumo.dlr.de/xsd/sumoConfiguration.xsd">

    <input>
        <net-file value="nets/120p4k/net.net.xml"/>
        <route-files value="nets/120p4k/route_temp_784_139142733854512_59322201.rou.xml"/>
    </input>

    <output>
        <summary-output value="result_ddqn_1.5_0.1/summary_ep_6.xml"/>
        <tripinfo-output value="result_ddqn_1.5_0.1/tripinfo_ep_6.xml"/>
        <vehroute-output value="result_ddqn_1.5_0.1/vehroute_ep_6.xml"/>
    </output>

    <time>
        <begin value="0"/>
    </time>

    <report>
        <verbose value="true"/>
        <no-warnings value="true"/>
        <no-step-log value="true"/>
    </report>

    <traci_server>
        <remote-port value="43655"/>
    </traci_server>

    <gui_only>
        <gui-settings-file value="nets/120p4k/gui-settings.xml"/>
        <quit-on-end value="true"/>
    </gui_only>

</configuration>
-->

<tripinfos xmlns:xsi="http://www.w3.org/2001/XMLSchema-instance" xsi:noNamespaceSchemaLocation="http://sumo.dlr.de/xsd/tripinfo_file.xsd">
    <tripinfo id="flow_3_increasing_0_N_right.0" depart="0.00" departLane="N_in_0" departPos="103.38" departSpeed="3.81" departDelay="0.00" arrival="24.00" arrivalLane="W_out_0" arrivalPos="189.60" arrivalSpeed="15.18" duration="24.00" routeLength="284.85" waitingTime="0.00" waitingCount="0" stopTime="0.00" timeLoss="4.59" rerouteNo="0" devices="vehroute_flow_3_increasing_0_N_right.0 tripinfo_flow_3_increasing_0_N_right.0" vType="moto" speedFactor="1.11" vaporized=""/>
    <tripinfo id="flow_6_increasing_0_S_left.0" depart="0.00" departLane="S_in_1" departPos="166.01" departSpeed="0.74" departDelay="0.00" arrival="25.00" arrivalLane="W_out_1" arrivalPos="189.60" arrivalSpeed="12.02" duration="25.00" routeLength="232.54" waitingTime="0.00" waitingCount="0" stopTime="0.00" timeLoss="4.33" rerouteNo="0" devices="vehroute_flow_6_increasing_0_S_left.0 tripinfo_flow_6_increasing_0_S_left.0" vType="moto" speedFactor="0.88" vaporized=""/>
    <tripinfo id="flow_11_increasing_0_E_right.0" depart="0.00" departLane="S_in_1" departPos="144.95" departSpeed="4.02" departDelay="0.00" arrival="27.00" arrivalLane="W_out_1" arrivalPos="189.60" arrivalSpeed="12.68" duration="27.00" routeLength="253.60" waitingTime="0.00" waitingCount="0" stopTime="0.00" timeLoss="7.21" rerouteNo="0" devices="vehroute_flow_11_increasing_0_E_right.0 tripinfo_flow_11_increasing_0_E_right.0" vType="bus" speedFactor="0.96" vaporized=""/>
    <tripinfo id="flow_4_increasing_0_N_uturn.0" depart="0.00" departLane="N_in_1" departPos="127.60" departSpeed="0.08" departDelay="0.00" arrival="28.00" arrivalLane="N_out_1" arrivalPos="189.60" arrivalSpeed="11.57" duration="28.00" routeLength="256.27" waitingTime="0.00" waitingCount="0" stopTime="0.00" timeLoss="6.31" rerouteNo="0" devices="vehroute_flow_4_increasing_0_N_uturn.0 tripinfo_flow_4_increasing_0_N_uturn.0" vType="moto" speedFactor="0.91" vaporized=""/>
    <tripinfo id="flow_8_increasing_0_S_uturn.0" depart="0.00" departLane="S_in_0" departPos="120.11" departSpeed="4.48" departDelay="0.00" arrival="28.00" arrivalLane="S_out_1" arrivalPos="189.60" arrivalSpeed="13.35" duration="28.00" routeLength="263.76" waitingTime="0.00" waitingCount="0" stopTime="0.00" timeLoss="8.82" rerouteNo="0" devices="vehroute_flow_8_increasing_0_S_uturn.0 tripinfo_flow_8_increasing_0_S_uturn.0" vType="moto" speedFactor="1.05" vaporized=""/>
    <tripinfo id="flow_5_increasing_0_S_straight.0" depart="0.00" departLane="S_in_1" departPos="107.37" departSpeed="7.21" departDelay="0.00" arrival="30.00" arrivalLane="W_out_1" arrivalPos="189.60" arrivalSpeed="14.99" duration="30.00" routeLength="291.18" waitingTime="0.00" waitingCount="0" stopTime="0.00" timeLoss="10.52" rerouteNo="0" devices="vehroute_flow_5_increasing_0_S_straight.0 tripinfo_flow_5_increasing_0_S_straight.0" vType="moto" speedFactor="1.15" vaporized=""/>
    <tripinfo id="flow_2_increasing_0_N_left.0" depart="0.00" departLane="N_in_1" departPos="8.27" departSpeed="8.33" departDelay="0.00" arrival="31.00" arrivalLane="E_out_1" arrivalPos="189.60" arrivalSpeed="13.89" duration="31.00" routeLength="390.28" waitingTime="0.00" waitingCount="0" stopTime="0.00" timeLoss="2.69" rerouteNo="0" devices="vehroute_flow_2_increasing_0_N_left.0 tripinfo_flow_2_increasing_0_N_left.0" vType="moto" speedFactor="1.02" vaporized=""/>
    <tripinfo id="flow_14_increasing_0_W_left.0" depart="0.00" departLane="W_in_1" departPos="182.88" departSpeed="5.61" departDelay="0.00" arrival="36.00" arrivalLane="N_out_1" arrivalPos="189.60" arrivalSpeed="13.93" duration="36.00" routeLength="215.67" waitingTime="13.00" waitingCount="1" stopTime="0.00" timeLoss="19.28" rerouteNo="0" devices="vehroute_flow_14_increasing_0_W_left.0 tripinfo_flow_14_increasing_0_W_left.0" vType="moto" speedFactor="1.01" vaporized=""/>
    <tripinfo id="flow_16_increasing_0_W_uturn.0" depart="0.00" departLane="W_in_0" departPos="126.68" departSpeed="11.71" departDelay="0.00" arrival="37.00" arrivalLane="W_out_1" arrivalPos="189.60" arrivalSpeed="14.02" duration="37.00" routeLength="257.19" waitingTime="12.00" waitingCount="1" stopTime="0.00" timeLoss="17.92" rerouteNo="0" devices="vehroute_flow_16_increasing_0_W_uturn.0 tripinfo_flow_16_increasing_0_W_uturn.0" vType="moto" speedFactor="1.04" vaporized=""/>
    <tripinfo id="flow_15_increasing_0_W_right.0" depart="0.00" departLane="W_in_0" departPos="108.38" departSpeed="2.63" departDelay="0.00" arrival="39.00" arrivalLane="S_out_0" arrivalPos="189.60" arrivalSpeed="10.97" duration="39.00" routeLength="279.85" waitingTime="6.00" waitingCount="1" stopTime="0.00" timeLoss="13.84" rerouteNo="0" devices="vehroute_flow_15_increasing_0_W_right.0 tripinfo_flow_15_increasing_0_W_right.0" vType="moto" speedFactor="0.85" vaporized=""/>
    <tripinfo id="flow_13_increasing_0_W_straight.0" depart="0.00" departLane="W_in_0" departPos="24.53" departSpeed="3.97" departDelay="0.00" arrival="42.00" arrivalLane="E_out_0" arrivalPos="189.60" arrivalSpeed="11.94" duration="42.00" routeLength="375.47" waitingTime="0.00" waitingCount="0" stopTime="0.00" timeLoss="10.51" rerouteNo="0" devices="vehroute_flow_13_increasing_0_W_straight.0 tripinfo_flow_13_increasing_0_W_straight.0" vType="bus" speedFactor="0.86" vaporized=""/>
    <tripinfo id="flow_9_increasing_0_E_straight.0" depart="0.00" departLane="E_in_0" departPos="168.29" departSpeed="10.73" departDelay="0.00" arrival="45.00" arrivalLane="S_out_1" arrivalPos="189.60" arrivalSpeed="12.37" duration="45.00" routeLength="230.26" waitingTime="17.00" waitingCount="2" stopTime="0.00" timeLoss="25.78" rerouteNo="0" devices="vehroute_flow_9_increasing_0_E_straight.0 tripinfo_flow_9_increasing_0_E_straight.0" vType="car" speedFactor="0.94" vaporized=""/>
    <tripinfo id="flow_7_increasing_0_S_right.0" depart="0.00" departLane="S_in_0" departPos="8.76" departSpeed="8.47" departDelay="0.00" arrival="53.00" arrivalLane="E_out_0" arrivalPos="189.60" arrivalSpeed="11.96" duration="53.00" routeLength="379.47" waitingTime="13.00" waitingCount="1" stopTime="0.00" timeLoss="21.65" rerouteNo="0" devices="vehroute_flow_7_increasing_0_S_right.0 tripinfo_flow_7_increasing_0_S_right.0" vType="bus" speedFactor="0.89" vaporized=""/>
    <tripinfo id="flow_1_increasing_0_N_straight.0" depart="0.00" departLane="N_in_0" departPos="8.62" departSpeed="8.51" departDelay="0.00" arrival="55.00" arrivalLane="S_out_0" arrivalPos="189.60" arrivalSpeed="11.26" duration="55.00" routeLength="391.38" waitingTime="10.00" waitingCount="1" stopTime="0.00" timeLoss="21.45" rerouteNo="0" devices="vehroute_flow_1_increasing_0_N_straight.0 tripinfo_flow_1_increasing_0_N_straight.0" vType="truck" speedFactor="0.86" vaporized=""/>
    <tripinfo id="flow_10_increasing_0_E_left.0" depart="0.00" departLane="E_in_0" departPos="44.88" departSpeed="8.19" departDelay="0.00" arrival="61.00" arrivalLane="S_out_1" arrivalPos="189.60" arrivalSpeed="14.83" duration="61.00" routeLength="353.67" waitingTime="22.00" waitingCount="3" stopTime="0.00" timeLoss="36.56" rerouteNo="0" devices="vehroute_flow_10_increasing_0_E_left.0 tripinfo_flow_10_increasing_0_E_left.0" vType="car" speedFactor="1.08" vaporized=""/>
    <tripinfo id="flow_12_increasing_0_E_uturn.0" depart="0.00" departLane="E_in_0" departPos="5.65" departSpeed="13.76" departDelay="0.00" arrival="64.00" arrivalLane="E_out_1" arrivalPos="189.60" arrivalSpeed="14.25" duration="64.00" routeLength="378.22" waitingTime="19.00" waitingCount="3" stopTime="0.00" timeLoss="36.65" rerouteNo="0" devices="vehroute_flow_12_increasing_0_E_uturn.0 tripinfo_flow_12_increasing_0_E_uturn.0" vType="moto" speedFactor="1.03" vaporized=""/>
    <tripinfo id="flow_13_increasing_0_W_straight.1" depart="41.00" departLane="W_in_1" departPos="31.93" departSpeed="9.28" departDelay="0.60" arrival="66.00" arrivalLane="E_out_1" arrivalPos="189.60" arrivalSpeed="15.35" duration="25.00" routeLength="368.07" waitingTime="0.00" waitingCount="0" stopTime="0.00" timeLoss="1.23" rerouteNo="0" devices="vehroute_flow_13_increasing_0_W_straight.1 tripinfo_flow_13_increasing_0_W_straight.1" vType="moto" speedFactor="1.19" vaporized=""/>
    <tripinfo id="flow_9_increasing_0_E_straight.1" depart="39.00" departLane="E_in_0" departPos="131.13" departSpeed="9.54" departDelay="0.54" arrival="70.00" arrivalLane="S_out_1" arrivalPos="189.60" arrivalSpeed="14.87" duration="31.00" routeLength="267.42" waitingTime="2.00" waitingCount="1" stopTime="0.00" timeLoss="13.23" rerouteNo="0" devices="vehroute_flow_9_increasing_0_E_straight.1 tripinfo_flow_9_increasing_0_E_straight.1" vType="moto" speedFactor="1.16" vaporized=""/>
    <tripinfo id="flow_1_increasing_0_N_straight.1" depart="42.00" departLane="N_in_1" departPos="121.65" departSpeed="2.92" departDelay="0.12" arrival="74.00" arrivalLane="S_out_0" arrivalPos="189.60" arrivalSpeed="15.74" duration="32.00" routeLength="278.35" waitingTime="6.00" waitingCount="1" stopTime="0.00" timeLoss="13.60" rerouteNo="0" devices="vehroute_flow_1_increasing_0_N_straight.1 tripinfo_flow_1_increasing_0_N_straight.1" vType="moto" speedFactor="1.15" vaporized=""/>
    <tripinfo id="flow_5_increasing_0_S_straight.1" depart="40.00" departLane="S_in_1" departPos="58.36" departSpeed="11.64" departDelay="0.20" arrival="80.00" arrivalLane="W_out_1" arrivalPos="189.60" arrivalSpeed="11.69" duration="40.00" routeLength="340.19" waitingTime="3.00" waitingCount="2" stopTime="0.00" timeLoss="11.23" rerouteNo="0" devices="vehroute_flow_5_increasing_0_S_straight.1 tripinfo_flow_5_increasing_0_S_straight.1" vType="moto" speedFactor="0.87" vaporized=""/>
    <tripinfo id="flow_1_increasing_0_N_straight.2" depart="84.00" departLane="N_in_1" departPos="107.53" departSpeed="1.11" departDelay="0.23" arrival="110.00" arrivalLane="S_out_0" arrivalPos="189.60" arrivalSpeed="11.96" duration="26.00" routeLength="292.47" waitingTime="0.00" waitingCount="0" stopTime="0.00" timeLoss="3.18" rerouteNo="0" devices="vehroute_flow_1_increasing_0_N_straight.2 tripinfo_flow_1_increasing_0_N_straight.2" vType="moto" speedFactor="0.93" vaporized=""/>
    <tripinfo id="flow_5_increasing_0_S_straight.2" depart="80.00" departLane="S_in_1" departPos="12.70" departSpeed="12.41" departDelay="0.40" arrival="113.00" arrivalLane="W_out_1" arrivalPos="189.60" arrivalSpeed="12.41" duration="33.00" routeLength="385.85" waitingTime="0.00" waitingCount="0" stopTime="0.00" timeLoss="2.81" rerouteNo="0" devices="vehroute_flow_5_increasing_0_S_straight.2 tripinfo_flow_5_increasing_0_S_straight.2" vType="moto" speedFactor="0.96" vaporized=""/>
    <tripinfo id="flow_6_increasing_0_S_left.1" depart="100.00" departLane="S_in_0" departPos="156.52" departSpeed="9.22" departDelay="0.50" arrival="119.00" arrivalLane="W_out_1" arrivalPos="189.60" arrivalSpeed="14.37" duration="19.00" routeLength="242.03" waitingTime="0.00" waitingCount="0" stopTime="0.00" timeLoss="1.68" rerouteNo="0" devices="vehroute_flow_6_increasing_0_S_left.1 tripinfo_flow_6_increasing_0_S_left.1" vType="moto" speedFactor="1.08" vaporized=""/>
    <tripinfo id="flow_15_increasing_0_W_right.1" depart="99.00" departLane="W_in_1" departPos="128.68" departSpeed="3.06" departDelay="0.96" arrival="128.00" arrivalLane="S_out_0" arrivalPos="189.60" arrivalSpeed="14.21" duration="29.00" routeLength="259.55" waitingTime="0.00" waitingCount="0" stopTime="0.00" timeLoss="10.09" rerouteNo="0" devices="vehroute_flow_15_increasing_0_W_right.1 tripinfo_flow_15_increasing_0_W_right.1" vType="moto" speedFactor="1.04" vaporized=""/>
    <tripinfo id="flow_14_increasing_0_W_left.1" depart="100.00" departLane="W_in_0" departPos="69.24" departSpeed="6.06" departDelay="0.50" arrival="128.00" arrivalLane="N_out_1" arrivalPos="189.60" arrivalSpeed="14.43" duration="28.00" routeLength="329.31" waitingTime="0.00" waitingCount="0" stopTime="0.00" timeLoss="3.96" rerouteNo="0" devices="vehroute_flow_14_increasing_0_W_left.1 tripinfo_flow_14_increasing_0_W_left.1" vType="moto" speedFactor="1.05" vaporized=""/>
    <tripinfo id="flow_13_increasing_0_W_straight.2" depart="81.00" departLane="W_in_1" departPos="59.51" departSpeed="13.32" departDelay="0.19" arrival="129.00" arrivalLane="E_out_0" arrivalPos="189.60" arrivalSpeed="12.93" duration="48.00" routeLength="340.49" waitingTime="11.00" waitingCount="1" stopTime="0.00" timeLoss="22.31" rerouteNo="0" devices="vehroute_flow_13_increasing_0_W_straight.2 tripinfo_flow_13_increasing_0_W_straight.2" vType="truck" speedFactor="0.97" vaporized=""/>
    <tripinfo id="flow_9_increasing_0_E_straight.2" depart="77.00" departLane="E_in_1" departPos="52.87" departSpeed="0.38" departDelay="0.08" arrival="131.00" arrivalLane="S_out_1" arrivalPos="189.60" arrivalSpeed="13.51" duration="54.00" routeLength="345.68" waitingTime="16.00" waitingCount="2" stopTime="0.00" timeLoss="28.17" rerouteNo="0" devices="vehroute_flow_9_increasing_0_E_straight.2 tripinfo_flow_9_increasing_0_E_straight.2" vType="moto" speedFactor="0.99" vaporized=""/>
    <tripinfo id="flow_2_increasing_0_N_left.1" depart="98.00" departLane="N_in_0" departPos="8.88" departSpeed="2.82" departDelay="0.44" arrival="135.00" arrivalLane="E_out_1" arrivalPos="189.60" arrivalSpeed="15.07" duration="37.00" routeLength="389.67" waitingTime="3.00" waitingCount="1" stopTime="0.00" timeLoss="11.48" rerouteNo="0" devices="vehroute_flow_2_increasing_0_N_left.1 tripinfo_flow_2_increasing_0_N_left.1" vType="moto" speedFactor="1.12" vaporized=""/>
    <tripinfo id="flow_11_increasing_0_E_right.1" depart="102.00" departLane="S_in_1" departPos="118.54" departSpeed="10.72" departDelay="0.48" arrival="139.00" arrivalLane="W_out_1" arrivalPos="189.60" arrivalSpeed="11.92" duration="37.00" routeLength="280.01" waitingTime="8.00" waitingCount="1" stopTime="0.00" timeLoss="13.21" rerouteNo="0" devices="vehroute_flow_11_increasing_0_E_right.1 tripinfo_flow_11_increasing_0_E_right.1" vType="moto" speedFactor="0.88" vaporized=""/>
    <tripinfo id="flow_1_increasing_0_N_straight.3" depart="126.00" departLane="N_in_0" departPos="148.08" departSpeed="9.73" departDelay="0.35" arrival="144.00" arrivalLane="S_out_0" arrivalPos="189.60" arrivalSpeed="14.21" duration="18.00" routeLength="251.92" waitingTime="0.00" waitingCount="0" stopTime="0.00" timeLoss="0.83" rerouteNo="0" devices="vehroute_flow_1_increasing_0_N_straight.3 tripinfo_flow_1_increasing_0_N_straight.3" vType="moto" speedFactor="1.06" vaporized=""/>
    <tripinfo id="flow_3_increasing_0_N_right.1" depart="105.00" departLane="N_in_1" departPos="134.76" departSpeed="6.26" departDelay="0.83" arrival="145.00" arrivalLane="W_out_0" arrivalPos="189.60" arrivalSpeed="12.47" duration="40.00" routeLength="253.47" waitingTime="5.00" waitingCount="1" stopTime="0.00" timeLoss="19.38" rerouteNo="0" devices="vehroute_flow_3_increasing_0_N_right.1 tripinfo_flow_3_increasing_0_N_right.1" vType="container" speedFactor="0.91" vaporized=""/>
    <tripinfo id="flow_7_increasing_0_S_right.1" depart="98.00" departLane="S_in_1" departPos="66.71" departSpeed="7.87" departDelay="0.44" arrival="146.00" arrivalLane="E_out_0" arrivalPos="189.60" arrivalSpeed="10.75" duration="48.00" routeLength="321.52" waitingTime="6.00" waitingCount="1" stopTime="0.00" timeLoss="17.72" rerouteNo="0" devices="vehroute_flow_7_increasing_0_S_right.1 tripinfo_flow_7_increasing_0_S_right.1" vType="container" speedFactor="0.78" vaporized=""/>
    <tripinfo id="flow_5_increasing_0_S_straight.3" depart="120.00" departLane="S_in_1" departPos="77.94" departSpeed="4.43" departDelay="0.60" arrival="146.00" arrivalLane="W_out_1" arrivalPos="189.60" arrivalSpeed="14.19" duration="26.00" routeLength="320.61" waitingTime="0.00" waitingCount="0" stopTime="0.00" timeLoss="3.46" rerouteNo="0" devices="vehroute_flow_5_increasing_0_S_straight.3 tripinfo_flow_5_increasing_0_S_straight.3" vType="moto" speedFactor="1.08" vaporized=""/>
    <tripinfo id="flow_13_increasing_0_W_straight.3" depart="122.00" departLane="W_in_0" departPos="19.25" departSpeed="11.19" departDelay="0.79" arrival="159.00" arrivalLane="E_out_0" arrivalPos="189.60" arrivalSpeed="15.16" duration="37.00" routeLength="380.75" waitingTime="5.00" waitingCount="1" stopTime="0.00" timeLoss="12.44" rerouteNo="0" devices="vehroute_flow_13_increasing_0_W_straight.3 tripinfo_flow_13_increasing_0_W_straight.3" vType="moto" speedFactor="1.20" vaporized=""/>
    <tripinfo id="flow_10_increasing_0_E_left.1" depart="102.00" departLane="E_in_1" departPos="57.40" departSpeed="0.26" departDelay="0.48" arrival="168.00" arrivalLane="S_out_0" arrivalPos="189.60" arrivalSpeed="9.73" duration="66.00" routeLength="341.15" waitingTime="22.00" waitingCount="1" stopTime="0.00" timeLoss="32.73" rerouteNo="0" devices="vehroute_flow_10_increasing_0_E_left.1 tripinfo_flow_10_increasing_0_E_left.1" vType="car" speedFactor="0.77" vaporized=""/>
    <tripinfo id="flow_9_increasing_0_E_straight.3" depart="116.00" departLane="E_in_1" departPos="108.76" departSpeed="10.34" departDelay="0.61" arrival="170.00" arrivalLane="S_out_1" arrivalPos="189.60" arrivalSpeed="11.48" duration="54.00" routeLength="289.79" waitingTime="16.00" waitingCount="1" stopTime="0.00" timeLoss="28.36" rerouteNo="0" devices="vehroute_flow_9_increasing_0_E_straight.3 tripinfo_flow_9_increasing_0_E_straight.3" vType="truck" speedFactor="0.85" vaporized=""/>
    <tripinfo id="flow_5_increasing_0_S_straight.4" depart="160.00" departLane="S_in_0" departPos="167.23" departSpeed="1.90" departDelay="0.80" arrival="187.00" arrivalLane="W_out_1" arrivalPos="189.60" arrivalSpeed="12.99" duration="27.00" routeLength="231.32" waitingTime="0.00" waitingCount="0" stopTime="0.00" timeLoss="8.37" rerouteNo="0" devices="vehroute_flow_5_increasing_0_S_straight.4 tripinfo_flow_5_increasing_0_S_straight.4" vType="container" speedFactor="0.97" vaporized=""/>
    <tripinfo id="flow_1_increasing_0_N_straight.4" depart="168.00" departLane="N_in_0" departPos="185.47" departSpeed="4.13" departDelay="0.46" arrival="188.00" arrivalLane="S_out_1" arrivalPos="189.60" arrivalSpeed="13.08" duration="20.00" routeLength="214.53" waitingTime="0.00" waitingCount="0" stopTime="0.00" timeLoss="3.66" rerouteNo="0" devices="vehroute_flow_1_increasing_0_N_straight.4 tripinfo_flow_1_increasing_0_N_straight.4" vType="car" speedFactor="0.96" vaporized=""/>
    <tripinfo id="flow_13_increasing_0_W_straight.4" depart="162.00" departLane="W_in_0" departPos="8.08" departSpeed="5.80" departDelay="0.38" arrival="197.00" arrivalLane="E_out_0" arrivalPos="189.60" arrivalSpeed="11.37" duration="35.00" routeLength="391.92" waitingTime="0.00" waitingCount="0" stopTime="0.00" timeLoss="2.39" rerouteNo="0" devices="vehroute_flow_13_increasing_0_W_straight.4 tripinfo_flow_13_increasing_0_W_straight.4" vType="truck" speedFactor="0.87" vaporized=""/>
    <tripinfo id="flow_9_increasing_0_E_straight.4" depart="154.00" departLane="E_in_1" departPos="23.57" departSpeed="9.43" departDelay="0.15" arrival="204.00" arrivalLane="S_out_1" arrivalPos="189.60" arrivalSpeed="12.98" duration="50.00" routeLength="374.98" waitingTime="8.00" waitingCount="2" stopTime="0.00" timeLoss="20.97" rerouteNo="0" devices="vehroute_flow_9_increasing_0_E_straight.4 tripinfo_flow_9_increasing_0_E_straight.4" vType="bus" speedFactor="0.95" vaporized=""/>
    <tripinfo id="flow_4_increasing_0_N_uturn.1" depart="192.00" departLane="N_in_1" departPos="171.48" departSpeed="2.19" departDelay="0.61" arrival="219.00" arrivalLane="N_out_1" arrivalPos="189.60" arrivalSpeed="13.97" duration="27.00" routeLength="212.39" waitingTime="2.00" waitingCount="1" stopTime="0.00" timeLoss="10.12" rerouteNo="0" devices="vehroute_flow_4_increasing_0_N_uturn.1 tripinfo_flow_4_increasing_0_N_uturn.1" vType="moto" speedFactor="1.03" vaporized=""/>
    <tripinfo id="flow_7_increasing_0_S_right.2" depart="196.00" departLane="S_in_0" departPos="121.56" departSpeed="11.75" departDelay="0.88" arrival="220.00" arrivalLane="E_out_0" arrivalPos="189.60" arrivalSpeed="12.90" duration="24.00" routeLength="266.67" waitingTime="0.00" waitingCount="0" stopTime="0.00" timeLoss="3.41" rerouteNo="0" devices="vehroute_flow_7_increasing_0_S_right.2 tripinfo_flow_7_increasing_0_S_right.2" vType="car" speedFactor="0.99" vaporized=""/>
    <tripinfo id="flow_6_increasing_0_S_left.2" depart="200.00" departLane="S_in_1" departPos="89.17" departSpeed="11.39" departDelay="1.00" arrival="226.00" arrivalLane="W_out_1" arrivalPos="189.60" arrivalSpeed="13.21" duration="26.00" routeLength="309.38" waitingTime="0.00" waitingCount="0" stopTime="0.00" timeLoss="3.29" rerouteNo="0" devices="vehroute_flow_6_increasing_0_S_left.2 tripinfo_flow_6_increasing_0_S_left.2" vType="moto" speedFactor="1.03" vaporized=""/>
    <tripinfo id="flow_2_increasing_0_N_left.2" depart="196.00" departLane="N_in_1" departPos="108.70" departSpeed="7.40" departDelay="0.88" arrival="228.00" arrivalLane="E_out_1" arrivalPos="189.60" arrivalSpeed="12.44" duration="32.00" routeLength="289.85" waitingTime="0.00" waitingCount="0" stopTime="0.00" timeLoss="7.70" rerouteNo="0" devices="vehroute_flow_2_increasing_0_N_left.2 tripinfo_flow_2_increasing_0_N_left.2" vType="container" speedFactor="0.90" vaporized=""/>
    <tripinfo id="flow_15_increasing_0_W_right.2" depart="197.00" departLane="W_in_0" departPos="104.14" departSpeed="12.50" departDelay="0.92" arrival="232.00" arrivalLane="S_out_0" arrivalPos="189.60" arrivalSpeed="12.64" duration="35.00" routeLength="284.09" waitingTime="5.00" waitingCount="1" stopTime="0.00" timeLoss="12.76" rerouteNo="0" devices="vehroute_flow_15_increasing_0_W_right.2 tripinfo_flow_15_increasing_0_W_right.2" vType="moto" speedFactor="0.95" vaporized=""/>
    <tripinfo id="flow_16_increasing_0_W_uturn.1" depart="195.00" departLane="W_in_0" departPos="71.94" departSpeed="4.41" departDelay="0.83" arrival="233.00" arrivalLane="W_out_1" arrivalPos="189.60" arrivalSpeed="14.77" duration="38.00" routeLength="311.93" waitingTime="6.00" waitingCount="1" stopTime="0.00" timeLoss="17.38" rerouteNo="0" devices="vehroute_flow_16_increasing_0_W_uturn.1 tripinfo_flow_16_increasing_0_W_uturn.1" vType="moto" speedFactor="1.14" vaporized=""/>
    <tripinfo id="flow_12_increasing_0_E_uturn.1" depart="198.00" departLane="E_in_1" departPos="168.21" departSpeed="11.63" departDelay="0.96" arrival="234.00" arrivalLane="E_out_1" arrivalPos="189.60" arrivalSpeed="12.27" duration="36.00" routeLength="215.66" waitingTime="12.00" waitingCount="1" stopTime="0.00" timeLoss="17.13" rerouteNo="0" devices="vehroute_flow_12_increasing_0_E_uturn.1 tripinfo_flow_12_increasing_0_E_uturn.1" vType="moto" speedFactor="0.89" vaporized=""/>
    <tripinfo id="flow_14_increasing_0_W_left.2" depart="200.00" departLane="W_in_1" departPos="174.17" departSpeed="0.01" departDelay="1.00" arrival="234.00" arrivalLane="N_out_1" arrivalPos="189.60" arrivalSpeed="12.52" duration="34.00" routeLength="224.38" waitingTime="8.00" waitingCount="1" stopTime="0.00" timeLoss="15.12" rerouteNo="0" devices="vehroute_flow_14_increasing_0_W_left.2 tripinfo_flow_14_increasing_0_W_left.2" vType="car" speedFactor="0.93" vaporized=""/>
    <tripinfo id="flow_13_increasing_0_W_straight.5" depart="203.00" departLane="W_in_1" departPos="78.09" departSpeed="7.21" departDelay="0.98" arrival="235.00" arrivalLane="E_out_0" arrivalPos="189.60" arrivalSpeed="14.56" duration="32.00" routeLength="321.91" waitingTime="1.00" waitingCount="1" stopTime="0.00" timeLoss="9.86" rerouteNo="0" devices="vehroute_flow_13_increasing_0_W_straight.5 tripinfo_flow_13_increasing_0_W_straight.5" vType="moto" speedFactor="1.07" vaporized=""/>
    <tripinfo id="flow_9_increasing_0_E_straight.5" depart="193.00" departLane="E_in_0" departPos="81.69" departSpeed="9.19" departDelay="0.69" arrival="241.00" arrivalLane="S_out_1" arrivalPos="189.60" arrivalSpeed="13.60" duration="48.00" routeLength="316.86" waitingTime="14.00" waitingCount="2" stopTime="0.00" timeLoss="23.69" rerouteNo="0" devices="vehroute_flow_9_increasing_0_E_straight.5 tripinfo_flow_9_increasing_0_E_straight.5" vType="moto" speedFactor="1.00" vaporized=""/>
    <tripinfo id="flow_10_increasing_0_E_left.2" depart="204.00" departLane="E_in_1" departPos="155.35" departSpeed="13.51" departDelay="0.95" arrival="242.00" arrivalLane="S_out_1" arrivalPos="189.60" arrivalSpeed="13.85" duration="38.00" routeLength="243.20" waitingTime="8.00" waitingCount="2" stopTime="0.00" timeLoss="21.81" rerouteNo="0" devices="vehroute_flow_10_increasing_0_E_left.2 tripinfo_flow_10_increasing_0_E_left.2" vType="moto" speedFactor="1.14" vaporized=""/>
    <tripinfo id="flow_1_increasing_0_N_straight.5" depart="210.00" departLane="N_in_1" departPos="39.34" departSpeed="5.11" departDelay="0.58" arrival="244.00" arrivalLane="S_out_1" arrivalPos="189.60" arrivalSpeed="14.44" duration="34.00" routeLength="360.66" waitingTime="2.00" waitingCount="1" stopTime="0.00" timeLoss="10.33" rerouteNo="0" devices="vehroute_flow_1_increasing_0_N_straight.5 tripinfo_flow_1_increasing_0_N_straight.5" vType="moto" speedFactor="1.10" vaporized=""/>
    <tripinfo id="flow_3_increasing_0_N_right.2" depart="209.00" departLane="N_in_0" departPos="87.76" departSpeed="9.83" departDelay="0.67" arrival="246.00" arrivalLane="W_out_0" arrivalPos="189.60" arrivalSpeed="12.36" duration="37.00" routeLength="300.47" waitingTime="4.00" waitingCount="1" stopTime="0.00" timeLoss="11.93" rerouteNo="0" devices="vehroute_flow_3_increasing_0_N_right.2 tripinfo_flow_3_increasing_0_N_right.2" vType="moto" speedFactor="0.90" vaporized=""/>
    <tripinfo id="flow_11_increasing_0_E_right.2" depart="204.00" departLane="S_in_0" departPos="92.42" departSpeed="14.40" departDelay="0.95" arrival="249.00" arrivalLane="W_out_1" arrivalPos="189.60" arrivalSpeed="13.63" duration="45.00" routeLength="306.13" waitingTime="14.00" waitingCount="2" stopTime="0.00" timeLoss="22.49" rerouteNo="0" devices="vehroute_flow_11_increasing_0_E_right.2 tripinfo_flow_11_increasing_0_E_right.2" vType="moto" speedFactor="1.04" vaporized=""/>
    <tripinfo id="flow_5_increasing_0_S_straight.5" depart="200.00" departLane="S_in_0" departPos="31.76" departSpeed="11.77" departDelay="1.00" arrival="251.00" arrivalLane="W_out_1" arrivalPos="189.60" arrivalSpeed="11.91" duration="51.00" routeLength="366.79" waitingTime="11.00" waitingCount="1" stopTime="0.00" timeLoss="22.05" rerouteNo="0" devices="vehroute_flow_5_increasing_0_S_straight.5 tripinfo_flow_5_increasing_0_S_straight.5" vType="moto" speedFactor="0.94" vaporized=""/>
    <tripinfo id="flow_8_increasing_0_S_uturn.1" depart="211.00" departLane="S_in_0" departPos="61.32" departSpeed="5.57" departDelay="0.47" arrival="253.00" arrivalLane="S_out_1" arrivalPos="189.60" arrivalSpeed="11.40" duration="42.00" routeLength="322.55" waitingTime="5.00" waitingCount="1" stopTime="0.00" timeLoss="14.93" rerouteNo="0" devices="vehroute_flow_8_increasing_0_S_uturn.1 tripinfo_flow_8_increasing_0_S_uturn.1" vType="car" speedFactor="0.90" vaporized=""/>
    <tripinfo id="flow_9_increasing_0_E_straight.6" depart="231.00" departLane="E_in_0" departPos="69.49" departSpeed="6.31" departDelay="0.23" arrival="259.00" arrivalLane="S_out_1" arrivalPos="189.60" arrivalSpeed="13.64" duration="28.00" routeLength="329.06" waitingTime="0.00" waitingCount="0" stopTime="0.00" timeLoss="3.54" rerouteNo="0" devices="vehroute_flow_9_increasing_0_E_straight.6 tripinfo_flow_9_increasing_0_E_straight.6" vType="moto" speedFactor="1.02" vaporized=""/>
    <tripinfo id="flow_13_increasing_0_W_straight.6" depart="243.00" departLane="W_in_1" departPos="21.74" departSpeed="10.66" departDelay="0.58" arrival="273.00" arrivalLane="E_out_0" arrivalPos="189.60" arrivalSpeed="12.41" duration="30.00" routeLength="378.26" waitingTime="0.00" waitingCount="0" stopTime="0.00" timeLoss="1.46" rerouteNo="0" devices="vehroute_flow_13_increasing_0_W_straight.6 tripinfo_flow_13_increasing_0_W_straight.6" vType="moto" speedFactor="0.97" vaporized=""/>
    <tripinfo id="flow_1_increasing_0_N_straight.6" depart="252.00" departLane="N_in_0" departPos="43.18" departSpeed="3.06" departDelay="0.69" arrival="282.00" arrivalLane="S_out_0" arrivalPos="189.60" arrivalSpeed="12.89" duration="30.00" routeLength="356.82" waitingTime="0.00" waitingCount="0" stopTime="0.00" timeLoss="2.96" rerouteNo="0" devices="vehroute_flow_1_increasing_0_N_straight.6 tripinfo_flow_1_increasing_0_N_straight.6" vType="moto" speedFactor="0.98" vaporized=""/>