<?xml version="1.0" encoding="UTF-8"?>

<!-- generated on 2025-12-09 23:40:33 by Eclipse SUMO sumo Version 1.18.0
<configuration xmlns:xsi="http://www.w3.org/2001/XMLSchema-instance" xsi:noNamespaceSchemaLocation="http://sumo.dlr.de/xsd/sumoConfiguration.xsd">

    <input>
        <net-file value="nets/120p4k/net.net.xml"/>
        <route-files value="nets/120p4k/route_temp_784_139142733854512_59322201.rou.xml"/>
    </input>

    <output>
        <summary-output value="result_ddqn_1.5_0.1/summary_ep_1.xml"/>
        <tripinfo-output value="result_ddqn_1.5_0.1/tripinfo_ep_1.xml"/>
        <vehroute-output value="result_ddqn_1.5_0.1/vehroute_ep_1.xml"/>
    </output>

    <time>
        <begin value="0"/>
    </time>

    <report>
        <verbose value="true"/>
        <no-warnings value="true"/>
        <no-step-log value="true"/>
    </report>

    <traci_server>
        <remote-port value="43425"/>
    </traci_server>

    <gui_only>
        <gui-settings-file value="nets/120p4k/gui-settings.xml"/>
        <quit-on-end value="true"/>
    </gui_only>

</configuration>
-->

<tripinfos xmlns:xsi="http://www.w3.org/2001/XMLSchema-instance" xsi:noNamespaceSchemaLocation="http://sumo.dlr.de/xsd/tripinfo_file.xsd">
    <tripinfo id="flow_3_increasing_0_N_right.0" depart="0.00" departLane="N_in_0" departPos="103.38" departSpeed="3.81" departDelay="0.00" arrival="24.00" arrivalLane="W_out_0" arrivalPos="189.60" arrivalSpeed="15.30" duration="24.00" routeLength="284.85" waitingTime="0.00" waitingCount="0" stopTime="0.00" timeLoss="4.59" rerouteNo="0" devices="vehroute_flow_3_increasing_0_N_right.0 tripinfo_flow_3_increasing_0_N_right.0" vType="moto" speedFactor="1.11" vaporized=""/>
    <tripinfo id="flow_8_increasing_0_S_uturn.0" depart="0.00" departLane="S_in_0" departPos="120.11" departSpeed="4.48" departDelay="0.00" arrival="24.00" arrivalLane="S_out_1" arrivalPos="189.60" arrivalSpeed="14.52" duration="24.00" routeLength="263.76" waitingTime="0.00" waitingCount="0" stopTime="0.00" timeLoss="5.02" rerouteNo="0" devices="vehroute_flow_8_increasing_0_S_uturn.0 tripinfo_flow_8_increasing_0_S_uturn.0" vType="moto" speedFactor="1.05" vaporized=""/>
    <tripinfo id="flow_5_increasing_0_S_straight.0" depart="0.00" departLane="S_in_1" departPos="107.37" departSpeed="7.21" departDelay="0.00" arrival="25.00" arrivalLane="N_out_1" arrivalPos="189.60" arrivalSpeed="15.67" duration="25.00" routeLength="292.63" waitingTime="0.00" waitingCount="0" stopTime="0.00" timeLoss="5.84" rerouteNo="0" devices="vehroute_flow_5_increasing_0_S_straight.0 tripinfo_flow_5_increasing_0_S_straight.0" vType="moto" speedFactor="1.15" vaporized=""/>
    <tripinfo id="flow_6_increasing_0_S_left.0" depart="0.00" departLane="S_in_1" departPos="166.01" departSpeed="0.74" departDelay="0.00" arrival="25.00" arrivalLane="W_out_1" arrivalPos="189.60" arrivalSpeed="11.57" duration="25.00" routeLength="232.54" waitingTime="0.00" waitingCount="0" stopTime="0.00" timeLoss="4.31" rerouteNo="0" devices="vehroute_flow_6_increasing_0_S_left.0 tripinfo_flow_6_increasing_0_S_left.0" vType="moto" speedFactor="0.88" vaporized=""/>
    <tripinfo id="flow_2_increasing_0_N_left.0" depart="0.00" departLane="N_in_1" departPos="8.27" departSpeed="8.33" departDelay="0.00" arrival="32.00" arrivalLane="E_out_1" arrivalPos="189.60" arrivalSpeed="14.04" duration="32.00" routeLength="390.28" waitingTime="0.00" waitingCount="0" stopTime="0.00" timeLoss="2.82" rerouteNo="0" devices="vehroute_flow_2_increasing_0_N_left.0 tripinfo_flow_2_increasing_0_N_left.0" vType="moto" speedFactor="1.02" vaporized=""/>
    <tripinfo id="flow_4_increasing_0_N_uturn.0" depart="0.00" departLane="N_in_1" departPos="127.60" departSpeed="0.08" departDelay="0.00" arrival="32.00" arrivalLane="N_out_1" arrivalPos="189.60" arrivalSpeed="12.27" duration="32.00" routeLength="256.27" waitingTime="1.00" waitingCount="1" stopTime="0.00" timeLoss="9.82" rerouteNo="0" devices="vehroute_flow_4_increasing_0_N_uturn.0 tripinfo_flow_4_increasing_0_N_uturn.0" vType="moto" speedFactor="0.91" vaporized=""/>
    <tripinfo id="flow_13_increasing_0_W_straight.0" depart="0.00" departLane="S_in_0" departPos="77.99" departSpeed="3.97" departDelay="0.00" arrival="36.00" arrivalLane="S_out_0" arrivalPos="189.60" arrivalSpeed="11.53" duration="36.00" routeLength="305.88" waitingTime="0.00" waitingCount="0" stopTime="0.00" timeLoss="8.87" rerouteNo="0" devices="vehroute_flow_13_increasing_0_W_straight.0 tripinfo_flow_13_increasing_0_W_straight.0" vType="bus" speedFactor="0.86" vaporized=""/>
    <tripinfo id="flow_16_increasing_0_W_uturn.0" depart="0.00" departLane="W_in_0" departPos="135.67" departSpeed="9.64" departDelay="0.00" arrival="36.00" arrivalLane="W_out_1" arrivalPos="189.60" arrivalSpeed="14.32" duration="36.00" routeLength="248.20" waitingTime="11.00" waitingCount="1" stopTime="0.00" timeLoss="17.04" rerouteNo="0" devices="vehroute_flow_16_increasing_0_W_uturn.0 tripinfo_flow_16_increasing_0_W_uturn.0" vType="moto" speedFactor="1.04" vaporized=""/>
    <tripinfo id="flow_9_increasing_0_E_straight.0" depart="0.00" departLane="E_in_0" departPos="168.29" departSpeed="10.73" departDelay="0.00" arrival="37.00" arrivalLane="W_out_0" arrivalPos="189.60" arrivalSpeed="12.69" duration="37.00" routeLength="231.71" waitingTime="12.00" waitingCount="1" stopTime="0.00" timeLoss="18.88" rerouteNo="0" devices="vehroute_flow_9_increasing_0_E_straight.0 tripinfo_flow_9_increasing_0_E_straight.0" vType="car" speedFactor="0.94" vaporized=""/>
    <tripinfo id="flow_10_increasing_0_E_left.0" depart="0.00" departLane="E_in_0" departPos="44.88" departSpeed="8.19" departDelay="0.00" arrival="37.00" arrivalLane="S_out_1" arrivalPos="189.60" arrivalSpeed="14.42" duration="37.00" routeLength="353.67" waitingTime="3.00" waitingCount="1" stopTime="0.00" timeLoss="12.66" rerouteNo="0" devices="vehroute_flow_10_increasing_0_E_left.0 tripinfo_flow_10_increasing_0_E_left.0" vType="car" speedFactor="1.08" vaporized=""/>
    <tripinfo id="flow_14_increasing_0_W_left.0" depart="0.00" departLane="W_in_1" departPos="42.31" departSpeed="3.71" departDelay="0.00" arrival="38.00" arrivalLane="N_out_1" arrivalPos="189.60" arrivalSpeed="13.91" duration="38.00" routeLength="356.24" waitingTime="3.00" waitingCount="1" stopTime="0.00" timeLoss="11.70" rerouteNo="0" devices="vehroute_flow_14_increasing_0_W_left.0 tripinfo_flow_14_increasing_0_W_left.0" vType="moto" speedFactor="1.01" vaporized=""/>
    <tripinfo id="flow_12_increasing_0_E_uturn.0" depart="0.00" departLane="E_in_0" departPos="5.65" departSpeed="13.76" departDelay="0.00" arrival="39.00" arrivalLane="E_out_1" arrivalPos="189.60" arrivalSpeed="13.58" duration="39.00" routeLength="378.22" waitingTime="3.00" waitingCount="1" stopTime="0.00" timeLoss="10.73" rerouteNo="0" devices="vehroute_flow_12_increasing_0_E_uturn.0 tripinfo_flow_12_increasing_0_E_uturn.0" vType="moto" speedFactor="1.03" vaporized=""/>
    <tripinfo id="flow_15_increasing_0_W_right.0" depart="0.00" departLane="W_in_1" departPos="153.90" departSpeed="6.73" departDelay="0.00" arrival="39.00" arrivalLane="S_out_0" arrivalPos="189.60" arrivalSpeed="11.71" duration="39.00" routeLength="234.33" waitingTime="10.00" waitingCount="1" stopTime="0.00" timeLoss="17.69" rerouteNo="0" devices="vehroute_flow_15_increasing_0_W_right.0 tripinfo_flow_15_increasing_0_W_right.0" vType="moto" speedFactor="0.85" vaporized=""/>
    <tripinfo id="flow_11_increasing_0_E_right.0" depart="0.00" departLane="E_in_1" departPos="144.95" departSpeed="4.02" departDelay="0.00" arrival="41.00" arrivalLane="N_out_0" arrivalPos="189.60" arrivalSpeed="13.03" duration="41.00" routeLength="243.28" waitingTime="11.00" waitingCount="1" stopTime="0.00" timeLoss="21.88" rerouteNo="0" devices="vehroute_flow_11_increasing_0_E_right.0 tripinfo_flow_11_increasing_0_E_right.0" vType="bus" speedFactor="0.96" vaporized=""/>
    <tripinfo id="flow_7_increasing_0_S_right.0" depart="0.00" departLane="S_in_0" departPos="8.76" departSpeed="8.47" departDelay="0.00" arrival="54.00" arrivalLane="E_out_0" arrivalPos="189.60" arrivalSpeed="12.03" duration="54.00" routeLength="379.47" waitingTime="11.00" waitingCount="1" stopTime="0.00" timeLoss="21.62" rerouteNo="0" devices="vehroute_flow_7_increasing_0_S_right.0 tripinfo_flow_7_increasing_0_S_right.0" vType="bus" speedFactor="0.89" vaporized=""/>
    <tripinfo id="flow_1_increasing_0_N_straight.0" depart="0.00" departLane="N_in_0" departPos="8.62" departSpeed="8.51" departDelay="0.00" arrival="55.00" arrivalLane="S_out_0" arrivalPos="189.60" arrivalSpeed="11.66" duration="55.00" routeLength="391.38" waitingTime="11.00" waitingCount="1" stopTime="0.00" timeLoss="22.06" rerouteNo="0" devices="vehroute_flow_1_increasing_0_N_straight.0 tripinfo_flow_1_increasing_0_N_straight.0" vType="truck" speedFactor="0.86" vaporized=""/>
    <tripinfo id="flow_9_increasing_0_E_straight.1" depart="39.00" departLane="E_in_1" departPos="177.29" departSpeed="8.41" departDelay="0.54" arrival="61.00" arrivalLane="W_out_0" arrivalPos="189.60" arrivalSpeed="15.49" duration="22.00" routeLength="222.71" waitingTime="1.00" waitingCount="1" stopTime="0.00" timeLoss="7.35" rerouteNo="0" devices="vehroute_flow_9_increasing_0_E_straight.1 tripinfo_flow_9_increasing_0_E_straight.1" vType="moto" speedFactor="1.16" vaporized=""/>
    <tripinfo id="flow_13_increasing_0_W_straight.1" depart="41.00" departLane="S_in_1" departPos="181.05" departSpeed="2.69" departDelay="0.60" arrival="74.00" arrivalLane="S_out_1" arrivalPos="189.60" arrivalSpeed="14.78" duration="33.00" routeLength="202.82" waitingTime="10.00" waitingCount="1" stopTime="0.00" timeLoss="18.80" rerouteNo="0" devices="vehroute_flow_13_increasing_0_W_straight.1 tripinfo_flow_13_increasing_0_W_straight.1" vType="moto" speedFactor="1.19" vaporized=""/>
    <tripinfo id="flow_1_increasing_0_N_straight.1" depart="42.00" departLane="N_in_1" departPos="28.79" departSpeed="10.22" departDelay="0.12" arrival="74.00" arrivalLane="S_out_0" arrivalPos="189.60" arrivalSpeed="15.59" duration="32.00" routeLength="371.21" waitingTime="0.00" waitingCount="0" stopTime="0.00" timeLoss="8.03" rerouteNo="0" devices="vehroute_flow_1_increasing_0_N_straight.1 tripinfo_flow_1_increasing_0_N_straight.1" vType="moto" speedFactor="1.15" vaporized=""/>
    <tripinfo id="flow_5_increasing_0_S_straight.1" depart="40.00" departLane="S_in_0" departPos="93.39" departSpeed="3.73" departDelay="0.20" arrival="77.00" arrivalLane="N_out_0" arrivalPos="189.60" arrivalSpeed="11.81" duration="37.00" routeLength="306.61" waitingTime="5.00" waitingCount="1" stopTime="0.00" timeLoss="11.28" rerouteNo="0" devices="vehroute_flow_5_increasing_0_S_straight.1 tripinfo_flow_5_increasing_0_S_straight.1" vType="moto" speedFactor="0.87" vaporized=""/>
    <tripinfo id="flow_5_increasing_0_S_straight.2" depart="80.00" departLane="S_in_0" departPos="33.93" departSpeed="0.90" departDelay="0.40" arrival="112.00" arrivalLane="N_out_0" arrivalPos="189.60" arrivalSpeed="12.61" duration="32.00" routeLength="366.07" waitingTime="0.00" waitingCount="0" stopTime="0.00" timeLoss="3.91" rerouteNo="0" devices="vehroute_flow_5_increasing_0_S_straight.2 tripinfo_flow_5_increasing_0_S_straight.2" vType="moto" speedFactor="0.96" vaporized=""/>
    <tripinfo id="flow_1_increasing_0_N_straight.2" depart="84.00" departLane="N_in_1" departPos="39.28" departSpeed="7.32" departDelay="0.23" arrival="114.00" arrivalLane="S_out_0" arrivalPos="189.60" arrivalSpeed="11.73" duration="30.00" routeLength="360.72" waitingTime="0.00" waitingCount="0" stopTime="0.00" timeLoss="1.91" rerouteNo="0" devices="vehroute_flow_1_increasing_0_N_straight.2 tripinfo_flow_1_increasing_0_N_straight.2" vType="moto" speedFactor="0.93" vaporized=""/>
    <tripinfo id="flow_13_increasing_0_W_straight.2" depart="81.00" departLane="S_in_1" departPos="64.28" departSpeed="4.21" departDelay="0.19" arrival="122.00" arrivalLane="S_out_1" arrivalPos="189.60" arrivalSpeed="13.08" duration="41.00" routeLength="319.59" waitingTime="3.00" waitingCount="1" stopTime="0.00" timeLoss="15.26" rerouteNo="0" devices="vehroute_flow_13_increasing_0_W_straight.2 tripinfo_flow_13_increasing_0_W_straight.2" vType="truck" speedFactor="0.97" vaporized=""/>
    <tripinfo id="flow_15_increasing_0_W_right.1" depart="99.00" departLane="W_in_0" departPos="80.24" departSpeed="9.78" departDelay="0.96" arrival="124.00" arrivalLane="S_out_0" arrivalPos="189.60" arrivalSpeed="14.34" duration="25.00" routeLength="307.99" waitingTime="0.00" waitingCount="0" stopTime="0.00" timeLoss="2.49" rerouteNo="0" devices="vehroute_flow_15_increasing_0_W_right.1 tripinfo_flow_15_increasing_0_W_right.1" vType="moto" speedFactor="1.04" vaporized=""/>
    <tripinfo id="flow_9_increasing_0_E_straight.2" depart="77.00" departLane="E_in_1" departPos="103.67" departSpeed="3.85" departDelay="0.08" arrival="125.00" arrivalLane="W_out_0" arrivalPos="189.60" arrivalSpeed="13.26" duration="48.00" routeLength="296.33" waitingTime="17.00" waitingCount="1" stopTime="0.00" timeLoss="25.65" rerouteNo="0" devices="vehroute_flow_9_increasing_0_E_straight.2 tripinfo_flow_9_increasing_0_E_straight.2" vType="moto" speedFactor="0.99" vaporized=""/>
    <tripinfo id="flow_14_increasing_0_W_left.1" depart="100.00" departLane="W_in_1" departPos="79.10" departSpeed="8.50" departDelay="0.50" arrival="126.00" arrivalLane="N_out_1" arrivalPos="189.60" arrivalSpeed="14.19" duration="26.00" routeLength="319.45" waitingTime="0.00" waitingCount="0" stopTime="0.00" timeLoss="2.30" rerouteNo="0" devices="vehroute_flow_14_increasing_0_W_left.1 tripinfo_flow_14_increasing_0_W_left.1" vType="moto" speedFactor="1.05" vaporized=""/>
    <tripinfo id="flow_11_increasing_0_E_right.1" depart="102.00" departLane="E_in_0" departPos="166.00" departSpeed="1.28" departDelay="0.48" arrival="127.00" arrivalLane="N_out_0" arrivalPos="189.60" arrivalSpeed="11.73" duration="25.00" routeLength="222.23" waitingTime="0.00" waitingCount="0" stopTime="0.00" timeLoss="5.79" rerouteNo="0" devices="vehroute_flow_11_increasing_0_E_right.1 tripinfo_flow_11_increasing_0_E_right.1" vType="moto" speedFactor="0.88" vaporized=""/>
    <tripinfo id="flow_2_increasing_0_N_left.1" depart="98.00" departLane="N_in_0" departPos="15.17" departSpeed="0.73" departDelay="0.44" arrival="136.00" arrivalLane="E_out_1" arrivalPos="189.60" arrivalSpeed="15.06" duration="38.00" routeLength="383.38" waitingTime="2.00" waitingCount="1" stopTime="0.00" timeLoss="12.21" rerouteNo="0" devices="vehroute_flow_2_increasing_0_N_left.1 tripinfo_flow_2_increasing_0_N_left.1" vType="moto" speedFactor="1.12" vaporized=""/>
    <tripinfo id="flow_6_increasing_0_S_left.1" depart="100.00" departLane="S_in_1" departPos="97.23" departSpeed="5.84" departDelay="0.50" arrival="136.00" arrivalLane="W_out_1" arrivalPos="189.60" arrivalSpeed="14.03" duration="36.00" routeLength="301.32" waitingTime="8.00" waitingCount="1" stopTime="0.00" timeLoss="14.81" rerouteNo="0" devices="vehroute_flow_6_increasing_0_S_left.1 tripinfo_flow_6_increasing_0_S_left.1" vType="moto" speedFactor="1.08" vaporized=""/>
    <tripinfo id="flow_5_increasing_0_S_straight.3" depart="120.00" departLane="S_in_0" departPos="56.18" departSpeed="8.58" departDelay="0.60" arrival="145.00" arrivalLane="N_out_0" arrivalPos="189.60" arrivalSpeed="14.70" duration="25.00" routeLength="343.82" waitingTime="0.00" waitingCount="0" stopTime="0.00" timeLoss="1.36" rerouteNo="0" devices="vehroute_flow_5_increasing_0_S_straight.3 tripinfo_flow_5_increasing_0_S_straight.3" vType="moto" speedFactor="1.08" vaporized=""/>
    <tripinfo id="flow_13_increasing_0_W_straight.3" depart="122.00" departLane="S_in_0" departPos="132.62" departSpeed="5.49" departDelay="0.79" arrival="145.00" arrivalLane="S_out_1" arrivalPos="189.60" arrivalSpeed="15.03" duration="23.00" routeLength="251.25" waitingTime="0.00" waitingCount="0" stopTime="0.00" timeLoss="6.06" rerouteNo="0" devices="vehroute_flow_13_increasing_0_W_straight.3 tripinfo_flow_13_increasing_0_W_straight.3" vType="moto" speedFactor="1.20" vaporized=""/>
    <tripinfo id="flow_3_increasing_0_N_right.1" depart="105.00" departLane="N_in_0" departPos="93.41" departSpeed="11.76" departDelay="0.83" arrival="146.00" arrivalLane="W_out_0" arrivalPos="189.60" arrivalSpeed="12.60" duration="41.00" routeLength="294.82" waitingTime="3.00" waitingCount="1" stopTime="0.00" timeLoss="16.69" rerouteNo="0" devices="vehroute_flow_3_increasing_0_N_right.1 tripinfo_flow_3_increasing_0_N_right.1" vType="container" speedFactor="0.91" vaporized=""/>
    <tripinfo id="flow_1_increasing_0_N_straight.3" depart="126.00" departLane="N_in_0" departPos="125.48" departSpeed="6.85" departDelay="0.35" arrival="147.00" arrivalLane="S_out_0" arrivalPos="189.60" arrivalSpeed="14.51" duration="21.00" routeLength="274.52" waitingTime="0.00" waitingCount="0" stopTime="0.00" timeLoss="1.60" rerouteNo="0" devices="vehroute_flow_1_increasing_0_N_straight.3 tripinfo_flow_1_increasing_0_N_straight.3" vType="moto" speedFactor="1.06" vaporized=""/>
    <tripinfo id="flow_7_increasing_0_S_right.1" depart="98.00" departLane="S_in_0" departPos="54.99" departSpeed="3.84" departDelay="0.44" arrival="148.00" arrivalLane="E_out_0" arrivalPos="189.60" arrivalSpeed="10.68" duration="50.00" routeLength="333.24" waitingTime="2.00" waitingCount="1" stopTime="0.00" timeLoss="18.16" rerouteNo="0" devices="vehroute_flow_7_increasing_0_S_right.1 tripinfo_flow_7_increasing_0_S_right.1" vType="container" speedFactor="0.78" vaporized=""/>
    <tripinfo id="flow_10_increasing_0_E_left.1" depart="102.00" departLane="E_in_0" departPos="4.52" departSpeed="10.46" departDelay="0.48" arrival="165.00" arrivalLane="S_out_0" arrivalPos="189.60" arrivalSpeed="10.65" duration="63.00" routeLength="394.03" waitingTime="18.00" waitingCount="1" stopTime="0.00" timeLoss="24.90" rerouteNo="0" devices="vehroute_flow_10_increasing_0_E_left.1 tripinfo_flow_10_increasing_0_E_left.1" vType="car" speedFactor="0.77" vaporized=""/>
    <tripinfo id="flow_9_increasing_0_E_straight.3" depart="116.00" departLane="E_in_0" departPos="86.42" departSpeed="8.41" departDelay="0.61" arrival="165.00" arrivalLane="W_out_0" arrivalPos="189.60" arrivalSpeed="11.52" duration="49.00" routeLength="313.58" waitingTime="14.00" waitingCount="1" stopTime="0.00" timeLoss="22.01" rerouteNo="0" devices="vehroute_flow_9_increasing_0_E_straight.3 tripinfo_flow_9_increasing_0_E_straight.3" vType="truck" speedFactor="0.85" vaporized=""/>
    <tripinfo id="flow_5_increasing_0_S_straight.4" depart="160.00" departLane="S_in_0" departPos="26.76" departSpeed="9.62" departDelay="0.80" arrival="190.00" arrivalLane="N_out_0" arrivalPos="189.60" arrivalSpeed="13.35" duration="30.00" routeLength="373.24" waitingTime="0.00" waitingCount="0" stopTime="0.00" timeLoss="1.47" rerouteNo="0" devices="vehroute_flow_5_increasing_0_S_straight.4 tripinfo_flow_5_increasing_0_S_straight.4" vType="container" speedFactor="0.97" vaporized=""/>
    <tripinfo id="flow_1_increasing_0_N_straight.4" depart="168.00" departLane="N_in_0" departPos="128.04" departSpeed="5.22" departDelay="0.46" arrival="191.00" arrivalLane="S_out_0" arrivalPos="189.60" arrivalSpeed="12.43" duration="23.00" routeLength="271.96" waitingTime="0.00" waitingCount="0" stopTime="0.00" timeLoss="2.06" rerouteNo="0" devices="vehroute_flow_1_increasing_0_N_straight.4 tripinfo_flow_1_increasing_0_N_straight.4" vType="car" speedFactor="0.96" vaporized=""/>
    <tripinfo id="flow_13_increasing_0_W_straight.4" depart="162.00" departLane="S_in_0" departPos="91.01" departSpeed="4.49" departDelay="0.38" arrival="195.00" arrivalLane="S_out_1" arrivalPos="189.60" arrivalSpeed="11.93" duration="33.00" routeLength="292.86" waitingTime="0.00" waitingCount="0" stopTime="0.00" timeLoss="8.00" rerouteNo="0" devices="vehroute_flow_13_increasing_0_W_straight.4 tripinfo_flow_13_increasing_0_W_straight.4" vType="truck" speedFactor="0.87" vaporized=""/>
    <tripinfo id="flow_9_increasing_0_E_straight.4" depart="154.00" departLane="E_in_1" departPos="135.04" departSpeed="3.72" departDelay="0.15" arrival="201.00" arrivalLane="W_out_0" arrivalPos="189.60" arrivalSpeed="12.86" duration="47.00" routeLength="264.96" waitingTime="12.00" waitingCount="1" stopTime="0.00" timeLoss="26.83" rerouteNo="0" devices="vehroute_flow_9_increasing_0_E_straight.4 tripinfo_flow_9_increasing_0_E_straight.4" vType="bus" speedFactor="0.95" vaporized=""/>
    <tripinfo id="flow_7_increasing_0_S_right.2" depart="196.00" departLane="S_in_0" departPos="155.68" departSpeed="8.80" departDelay="0.88" arrival="217.00" arrivalLane="E_out_0" arrivalPos="189.60" arrivalSpeed="13.59" duration="21.00" routeLength="232.55" waitingTime="0.00" waitingCount="0" stopTime="0.00" timeLoss="3.65" rerouteNo="0" devices="vehroute_flow_7_increasing_0_S_right.2 tripinfo_flow_7_increasing_0_S_right.2" vType="car" speedFactor="0.99" vaporized=""/>
    <tripinfo id="flow_4_increasing_0_N_uturn.1" depart="192.00" departLane="N_in_1" departPos="29.12" departSpeed="12.08" departDelay="0.61" arrival="224.00" arrivalLane="N_out_1" arrivalPos="189.60" arrivalSpeed="13.14" duration="32.00" routeLength="354.75" waitingTime="0.00" waitingCount="0" stopTime="0.00" timeLoss="5.16" rerouteNo="0" devices="vehroute_flow_4_increasing_0_N_uturn.1 tripinfo_flow_4_increasing_0_N_uturn.1" vType="moto" speedFactor="1.03" vaporized=""/>
    <tripinfo id="flow_13_increasing_0_W_straight.5" depart="203.00" departLane="S_in_1" departPos="172.37" departSpeed="7.21" departDelay="0.98" arrival="224.00" arrivalLane="S_out_1" arrivalPos="189.60" arrivalSpeed="13.58" duration="21.00" routeLength="211.50" waitingTime="0.00" waitingCount="0" stopTime="0.00" timeLoss="4.75" rerouteNo="0" devices="vehroute_flow_13_increasing_0_W_straight.5 tripinfo_flow_13_increasing_0_W_straight.5" vType="moto" speedFactor="1.07" vaporized=""/>
    <tripinfo id="flow_6_increasing_0_S_left.2" depart="200.00" departLane="S_in_0" departPos="64.25" departSpeed="6.71" departDelay="1.00" arrival="227.00" arrivalLane="W_out_1" arrivalPos="189.60" arrivalSpeed="14.18" duration="27.00" routeLength="334.30" waitingTime="0.00" waitingCount="0" stopTime="0.00" timeLoss="2.69" rerouteNo="0" devices="vehroute_flow_6_increasing_0_S_left.2 tripinfo_flow_6_increasing_0_S_left.2" vType="moto" speedFactor="1.03" vaporized=""/>
    <tripinfo id="flow_2_increasing_0_N_left.2" depart="196.00" departLane="N_in_1" departPos="19.51" departSpeed="8.50" departDelay="0.88" arrival="231.00" arrivalLane="E_out_1" arrivalPos="189.60" arrivalSpeed="12.14" duration="35.00" routeLength="379.04" waitingTime="0.00" waitingCount="0" stopTime="0.00" timeLoss="3.19" rerouteNo="0" devices="vehroute_flow_2_increasing_0_N_left.2 tripinfo_flow_2_increasing_0_N_left.2" vType="container" speedFactor="0.90" vaporized=""/>
    <tripinfo id="flow_15_increasing_0_W_right.2" depart="197.00" departLane="W_in_1" departPos="2.77" departSpeed="7.27" departDelay="0.92" arrival="232.00" arrivalLane="S_out_0" arrivalPos="189.60" arrivalSpeed="12.38" duration="35.00" routeLength="385.46" waitingTime="0.00" waitingCount="0" stopTime="0.00" timeLoss="4.60" rerouteNo="0" devices="vehroute_flow_15_increasing_0_W_right.2 tripinfo_flow_15_increasing_0_W_right.2" vType="moto" speedFactor="0.95" vaporized=""/>
    <tripinfo id="flow_9_increasing_0_E_straight.5" depart="193.00" departLane="E_in_0" departPos="125.76" departSpeed="4.77" departDelay="0.69" arrival="233.00" arrivalLane="W_out_0" arrivalPos="189.60" arrivalSpeed="13.24" duration="40.00" routeLength="274.24" waitingTime="12.00" waitingCount="1" stopTime="0.00" timeLoss="19.68" rerouteNo="0" devices="vehroute_flow_9_increasing_0_E_straight.5 tripinfo_flow_9_increasing_0_E_straight.5" vType="moto" speedFactor="1.00" vaporized=""/>
    <tripinfo id="flow_11_increasing_0_E_right.2" depart="204.00" departLane="E_in_1" departPos="188.98" departSpeed="0.62" departDelay="0.95" arrival="234.00" arrivalLane="N_out_0" arrivalPos="189.60" arrivalSpeed="13.77" duration="30.00" routeLength="199.25" waitingTime="10.00" waitingCount="1" stopTime="0.00" timeLoss="14.67" rerouteNo="0" devices="vehroute_flow_11_increasing_0_E_right.2 tripinfo_flow_11_increasing_0_E_right.2" vType="moto" speedFactor="1.04" vaporized=""/>
    <tripinfo id="flow_16_increasing_0_W_uturn.1" depart="195.00" departLane="W_in_0" departPos="52.57" departSpeed="9.36" departDelay="0.83" arrival="235.00" arrivalLane="W_out_1" arrivalPos="189.60" arrivalSpeed="15.35" duration="40.00" routeLength="331.30" waitingTime="6.00" waitingCount="1" stopTime="0.00" timeLoss="18.11" rerouteNo="0" devices="vehroute_flow_16_increasing_0_W_uturn.1 tripinfo_flow_16_increasing_0_W_uturn.1" vType="moto" speedFactor="1.14" vaporized=""/>
    <tripinfo id="flow_10_increasing_0_E_left.2" depart="204.00" departLane="E_in_0" departPos="161.41" departSpeed="1.81" departDelay="0.95" arrival="235.00" arrivalLane="S_out_1" arrivalPos="189.60" arrivalSpeed="15.48" duration="31.00" routeLength="237.14" waitingTime="5.00" waitingCount="1" stopTime="0.00" timeLoss="15.10" rerouteNo="0" devices="vehroute_flow_10_increasing_0_E_left.2 tripinfo_flow_10_increasing_0_E_left.2" vType="moto" speedFactor="1.14" vaporized=""/>
    <tripinfo id="flow_12_increasing_0_E_uturn.1" depart="198.00" departLane="E_in_0" departPos="91.52" departSpeed="10.95" departDelay="0.96" arrival="236.00" arrivalLane="E_out_1" arrivalPos="189.60" arrivalSpeed="12.30" duration="38.00" routeLength="292.35" waitingTime="5.00" waitingCount="1" stopTime="0.00" timeLoss="13.13" rerouteNo="0" devices="vehroute_flow_12_increasing_0_E_uturn.1 tripinfo_flow_12_increasing_0_E_uturn.1" vType="moto" speedFactor="0.89" vaporized=""/>
    <tripinfo id="flow_14_increasing_0_W_left.2" depart="200.00" departLane="W_in_1" departPos="174.17" departSpeed="8.49" departDelay="1.00" arrival="237.00" arrivalLane="N_out_1" arrivalPos="189.60" arrivalSpeed="12.21" duration="37.00" routeLength="224.38" waitingTime="9.00" waitingCount="1" stopTime="0.00" timeLoss="18.46" rerouteNo="0" devices="vehroute_flow_14_increasing_0_W_left.2 tripinfo_flow_14_increasing_0_W_left.2" vType="car" speedFactor="0.93" vaporized=""/>
    <tripinfo id="flow_1_increasing_0_N_straight.5" depart="210.00" departLane="N_in_0" departPos="63.10" departSpeed="12.95" departDelay="0.58" arrival="244.00" arrivalLane="S_out_1" arrivalPos="189.60" arrivalSpeed="14.45" duration="34.00" routeLength="336.90" waitingTime="4.00" waitingCount="1" stopTime="0.00" timeLoss="11.32" rerouteNo="0" devices="vehroute_flow_1_increasing_0_N_straight.5 tripinfo_flow_1_increasing_0_N_straight.5" vType="moto" speedFactor="1.10" vaporized=""/>
    <tripinfo id="flow_5_increasing_0_S_straight.5" depart="200.00" departLane="S_in_1" departPos="65.57" departSpeed="2.18" departDelay="1.00" arrival="246.00" arrivalLane="N_out_0" arrivalPos="189.60" arrivalSpeed="12.94" duration="46.00" routeLength="334.43" waitingTime="12.00" waitingCount="1" stopTime="0.00" timeLoss="19.81" rerouteNo="0" devices="vehroute_flow_5_increasing_0_S_straight.5 tripinfo_flow_5_increasing_0_S_straight.5" vType="moto" speedFactor="0.94" vaporized=""/>
    <tripinfo id="flow_3_increasing_0_N_right.2" depart="209.00" departLane="N_in_1" departPos="148.65" departSpeed="9.59" departDelay="0.67" arrival="246.00" arrivalLane="W_out_0" arrivalPos="189.60" arrivalSpeed="12.04" duration="37.00" routeLength="239.58" waitingTime="11.00" waitingCount="1" stopTime="0.00" timeLoss="17.12" rerouteNo="0" devices="vehroute_flow_3_increasing_0_N_right.2 tripinfo_flow_3_increasing_0_N_right.2" vType="moto" speedFactor="0.90" vaporized=""/>
    <tripinfo id="flow_8_increasing_0_S_uturn.1" depart="211.00" departLane="S_in_1" departPos="84.66" departSpeed="1.91" departDelay="0.47" arrival="251.00" arrivalLane="S_out_1" arrivalPos="189.60" arrivalSpeed="11.44" duration="40.00" routeLength="299.21" waitingTime="5.00" waitingCount="2" stopTime="0.00" timeLoss="14.28" rerouteNo="0" devices="vehroute_flow_8_increasing_0_S_uturn.1 tripinfo_flow_8_increasing_0_S_uturn.1" vType="car" speedFactor="0.90" vaporized=""/>
    <tripinfo id="flow_9_increasing_0_E_straight.6" depart="231.00" departLane="E_in_1" departPos="84.30" departSpeed="10.26" departDelay="0.23" arrival="256.00" arrivalLane="W_out_1" arrivalPos="189.60" arrivalSpeed="13.09" duration="25.00" routeLength="315.70" waitingTime="0.00" waitingCount="0" stopTime="0.00" timeLoss="2.18" rerouteNo="0" devices="vehroute_flow_9_increasing_0_E_straight.6 tripinfo_flow_9_increasing_0_E_straight.6" vType="moto" speedFactor="1.02" vaporized=""/>
    <tripinfo id="flow_5_increasing_0_S_straight.6" depart="239.00" departLane="S_in_1" departPos="29.88" departSpeed="12.24" departDelay="0.19" arrival="281.00" arrivalLane="N_out_0" arrivalPos="189.60" arrivalSpeed="14.45" duration="42.00" routeLength="370.12" waitingTime="8.00" waitingCount="1" stopTime="0.00" timeLoss="17.05" rerouteNo="0" devices="vehroute_flow_5_increasing_0_S_straight.6 tripinfo_flow_5_increasing_0_S_straight.6" vType="moto" speedFactor="1.10" vaporized=""/>
    <tripinfo id="flow_13_increasing_0_W_straight.6" depart="243.00" departLane="S_in_0" departPos="149.69" departSpeed="1.75" departDelay="0.58" arrival="282.00" arrivalLane="S_out_1" arrivalPos="189.60" arrivalSpeed="13.42" duration="39.00" routeLength="234.18" waitingTime="10.00" waitingCount="1" stopTime="0.00" timeLoss="19.69" rerouteNo="0" devices="vehroute_flow_13_increasing_0_W_straight.6 tripinfo_flow_13_increasing_0_W_straight.6" vType="moto" speedFactor="0.97" vaporized=""/>