<?xml version="1.0" encoding="UTF-8"?>

<!-- generated on 2025-12-09 23:44:35 by Eclipse SUMO sumo Version 1.18.0
<configuration xmlns:xsi="http://www.w3.org/2001/XMLSchema-instance" xsi:noNamespaceSchemaLocation="http://sumo.dlr.de/xsd/sumoConfiguration.xsd">

    <input>
        <net-file value="nets/120p4k/net.net.xml"/>
        <route-files value="nets/120p4k/route_temp_784_139142733854512_59322201.rou.xml"/>
    </input>

    <output>
        <summary-output value="result_ddqn_1.5_0.1/summary_ep_5.xml"/>
        <tripinfo-output value="result_ddqn_1.5_0.1/tripinfo_ep_5.xml"/>
        <vehroute-output value="result_ddqn_1.5_0.1/vehroute_ep_5.xml"/>
    </output>

    <time>
        <begin value="0"/>
    </time>

    <report>
        <verbose value="true"/>
        <no-warnings value="true"/>
        <no-step-log value="true"/>
    </report>

    <traci_server>
        <remote-port value="58291"/>
    </traci_server>

    <gui_only>
        <gui-settings-file value="nets/120p4k/gui-settings.xml"/>
        <quit-on-end value="true"/>
    </gui_only>

</configuration>
-->

<tripinfos xmlns:xsi="http://www.w3.org/2001/XMLSchema-instance" xsi:noNamespaceSchemaLocation="http://sumo.dlr.de/xsd/tripinfo_file.xsd">
    <tripinfo id="flow_8_increasing_0_S_uturn.0" depart="0.00" departLane="S_in_0" departPos="178.04" departSpeed="8.03" departDelay="0.00" arrival="19.00" arrivalLane="S_out_1" arrivalPos="189.60" arrivalSpeed="13.35" duration="19.00" routeLength="205.83" waitingTime="0.00" waitingCount="0" stopTime="0.00" timeLoss="3.87" rerouteNo="0" devices="vehroute_flow_8_increasing_0_S_uturn.0 tripinfo_flow_8_increasing_0_S_uturn.0" vType="moto" speedFactor="1.05" vaporized=""/>
    <tripinfo id="flow_5_increasing_0_S_straight.0" depart="0.00" departLane="S_in_1" departPos="107.37" departSpeed="7.21" departDelay="0.00" arrival="21.00" arrivalLane="N_out_1" arrivalPos="189.60" arrivalSpeed="14.91" duration="21.00" routeLength="292.63" waitingTime="0.00" waitingCount="0" stopTime="0.00" timeLoss="2.09" rerouteNo="0" devices="vehroute_flow_5_increasing_0_S_straight.0 tripinfo_flow_5_increasing_0_S_straight.0" vType="moto" speedFactor="1.15" vaporized=""/>
    <tripinfo id="flow_3_increasing_0_N_right.0" depart="0.00" departLane="N_in_0" departPos="103.38" departSpeed="3.81" departDelay="0.00" arrival="24.00" arrivalLane="W_out_0" arrivalPos="189.60" arrivalSpeed="15.18" duration="24.00" routeLength="284.85" waitingTime="0.00" waitingCount="0" stopTime="0.00" timeLoss="4.38" rerouteNo="0" devices="vehroute_flow_3_increasing_0_N_right.0 tripinfo_flow_3_increasing_0_N_right.0" vType="moto" speedFactor="1.11" vaporized=""/>
    <tripinfo id="flow_6_increasing_0_S_left.0" depart="0.00" departLane="S_in_1" departPos="166.01" departSpeed="0.74" departDelay="0.00" arrival="25.00" arrivalLane="W_out_1" arrivalPos="189.60" arrivalSpeed="11.28" duration="25.00" routeLength="232.54" waitingTime="0.00" waitingCount="0" stopTime="0.00" timeLoss="4.28" rerouteNo="0" devices="vehroute_flow_6_increasing_0_S_left.0 tripinfo_flow_6_increasing_0_S_left.0" vType="moto" speedFactor="0.88" vaporized=""/>
    <tripinfo id="flow_4_increasing_0_N_uturn.0" depart="0.00" departLane="N_in_1" departPos="127.60" departSpeed="0.08" departDelay="0.00" arrival="29.00" arrivalLane="N_out_1" arrivalPos="189.60" arrivalSpeed="11.42" duration="29.00" routeLength="256.27" waitingTime="0.00" waitingCount="0" stopTime="0.00" timeLoss="7.16" rerouteNo="0" devices="vehroute_flow_4_increasing_0_N_uturn.0 tripinfo_flow_4_increasing_0_N_uturn.0" vType="moto" speedFactor="0.91" vaporized=""/>
    <tripinfo id="flow_16_increasing_0_W_uturn.0" depart="0.00" departLane="W_in_0" departPos="126.68" departSpeed="11.71" departDelay="0.00" arrival="35.00" arrivalLane="W_out_1" arrivalPos="189.60" arrivalSpeed="14.32" duration="35.00" routeLength="257.19" waitingTime="10.00" waitingCount="1" stopTime="0.00" timeLoss="16.20" rerouteNo="0" devices="vehroute_flow_16_increasing_0_W_uturn.0 tripinfo_flow_16_increasing_0_W_uturn.0" vType="moto" speedFactor="1.04" vaporized=""/>
    <tripinfo id="flow_7_increasing_0_S_right.0" depart="0.00" departLane="N_in_0" departPos="97.26" departSpeed="1.22" departDelay="0.00" arrival="37.00" arrivalLane="N_out_0" arrivalPos="189.60" arrivalSpeed="11.68" duration="37.00" routeLength="286.61" waitingTime="0.00" waitingCount="0" stopTime="0.00" timeLoss="12.48" rerouteNo="0" devices="vehroute_flow_7_increasing_0_S_right.0 tripinfo_flow_7_increasing_0_S_right.0" vType="bus" speedFactor="0.89" vaporized=""/>
    <tripinfo id="flow_11_increasing_0_E_right.0" depart="0.00" departLane="E_in_1" departPos="30.17" departSpeed="10.18" departDelay="0.00" arrival="39.00" arrivalLane="N_out_0" arrivalPos="189.60" arrivalSpeed="12.65" duration="39.00" routeLength="358.06" waitingTime="1.00" waitingCount="1" stopTime="0.00" timeLoss="11.32" rerouteNo="0" devices="vehroute_flow_11_increasing_0_E_right.0 tripinfo_flow_11_increasing_0_E_right.0" vType="bus" speedFactor="0.96" vaporized=""/>
    <tripinfo id="flow_12_increasing_0_E_uturn.0" depart="0.00" departLane="E_in_1" departPos="129.89" departSpeed="0.43" departDelay="0.00" arrival="39.00" arrivalLane="E_out_1" arrivalPos="189.60" arrivalSpeed="13.49" duration="39.00" routeLength="253.98" waitingTime="8.00" waitingCount="2" stopTime="0.00" timeLoss="19.87" rerouteNo="0" devices="vehroute_flow_12_increasing_0_E_uturn.0 tripinfo_flow_12_increasing_0_E_uturn.0" vType="moto" speedFactor="1.03" vaporized=""/>
    <tripinfo id="flow_14_increasing_0_W_left.0" depart="0.00" departLane="W_in_1" departPos="50.07" departSpeed="13.54" departDelay="0.00" arrival="39.00" arrivalLane="N_out_1" arrivalPos="189.60" arrivalSpeed="14.02" duration="39.00" routeLength="348.48" waitingTime="4.00" waitingCount="1" stopTime="0.00" timeLoss="12.56" rerouteNo="0" devices="vehroute_flow_14_increasing_0_W_left.0 tripinfo_flow_14_increasing_0_W_left.0" vType="moto" speedFactor="1.01" vaporized=""/>
    <tripinfo id="flow_15_increasing_0_W_right.0" depart="0.00" departLane="W_in_1" departPos="108.38" departSpeed="1.98" departDelay="0.00" arrival="39.00" arrivalLane="S_out_0" arrivalPos="189.60" arrivalSpeed="10.73" duration="39.00" routeLength="279.85" waitingTime="5.00" waitingCount="1" stopTime="0.00" timeLoss="13.70" rerouteNo="0" devices="vehroute_flow_15_increasing_0_W_right.0 tripinfo_flow_15_increasing_0_W_right.0" vType="moto" speedFactor="0.85" vaporized=""/>
    <tripinfo id="flow_10_increasing_0_E_left.0" depart="0.00" departLane="E_in_0" departPos="6.15" departSpeed="3.56" departDelay="0.00" arrival="41.00" arrivalLane="S_out_1" arrivalPos="189.60" arrivalSpeed="14.41" duration="41.00" routeLength="392.40" waitingTime="2.00" waitingCount="1" stopTime="0.00" timeLoss="14.09" rerouteNo="0" devices="vehroute_flow_10_increasing_0_E_left.0 tripinfo_flow_10_increasing_0_E_left.0" vType="car" speedFactor="1.08" vaporized=""/>
    <tripinfo id="flow_13_increasing_0_W_straight.0" depart="0.00" departLane="W_in_0" departPos="23.77" departSpeed="1.55" departDelay="0.00" arrival="41.00" arrivalLane="E_out_0" arrivalPos="189.60" arrivalSpeed="11.38" duration="41.00" routeLength="376.23" waitingTime="0.00" waitingCount="0" stopTime="0.00" timeLoss="9.04" rerouteNo="0" devices="vehroute_flow_13_increasing_0_W_straight.0 tripinfo_flow_13_increasing_0_W_straight.0" vType="bus" speedFactor="0.86" vaporized=""/>
    <tripinfo id="flow_9_increasing_0_E_straight.0" depart="0.00" departLane="E_in_1" departPos="75.19" departSpeed="11.55" departDelay="0.00" arrival="42.00" arrivalLane="W_out_0" arrivalPos="189.60" arrivalSpeed="12.69" duration="42.00" routeLength="324.81" waitingTime="6.00" waitingCount="1" stopTime="0.00" timeLoss="16.58" rerouteNo="0" devices="vehroute_flow_9_increasing_0_E_straight.0 tripinfo_flow_9_increasing_0_E_straight.0" vType="car" speedFactor="0.94" vaporized=""/>
    <tripinfo id="flow_2_increasing_0_N_left.0" depart="0.00" departLane="N_in_1" departPos="8.27" departSpeed="8.33" departDelay="0.00" arrival="49.00" arrivalLane="E_out_1" arrivalPos="189.60" arrivalSpeed="13.31" duration="49.00" routeLength="390.28" waitingTime="8.00" waitingCount="1" stopTime="0.00" timeLoss="20.22" rerouteNo="0" devices="vehroute_flow_2_increasing_0_N_left.0 tripinfo_flow_2_increasing_0_N_left.0" vType="moto" speedFactor="1.02" vaporized=""/>
    <tripinfo id="flow_1_increasing_0_N_straight.0" depart="0.00" departLane="N_in_0" departPos="8.62" departSpeed="8.51" departDelay="0.00" arrival="55.00" arrivalLane="S_out_0" arrivalPos="189.60" arrivalSpeed="11.68" duration="55.00" routeLength="391.38" waitingTime="11.00" waitingCount="1" stopTime="0.00" timeLoss="21.94" rerouteNo="0" devices="vehroute_flow_1_increasing_0_N_straight.0 tripinfo_flow_1_increasing_0_N_straight.0" vType="truck" speedFactor="0.86" vaporized=""/>
    <tripinfo id="flow_9_increasing_0_E_straight.1" depart="39.00" departLane="E_in_0" departPos="131.13" departSpeed="9.54" departDelay="0.54" arrival="58.00" arrivalLane="W_out_0" arrivalPos="189.60" arrivalSpeed="15.79" duration="19.00" routeLength="268.87" waitingTime="0.00" waitingCount="0" stopTime="0.00" timeLoss="1.86" rerouteNo="0" devices="vehroute_flow_9_increasing_0_E_straight.1 tripinfo_flow_9_increasing_0_E_straight.1" vType="moto" speedFactor="1.16" vaporized=""/>
    <tripinfo id="flow_13_increasing_0_W_straight.1" depart="41.00" departLane="W_in_1" departPos="31.93" departSpeed="9.28" departDelay="0.60" arrival="66.00" arrivalLane="E_out_1" arrivalPos="189.60" arrivalSpeed="15.35" duration="25.00" routeLength="368.07" waitingTime="0.00" waitingCount="0" stopTime="0.00" timeLoss="1.35" rerouteNo="0" devices="vehroute_flow_13_increasing_0_W_straight.1 tripinfo_flow_13_increasing_0_W_straight.1" vType="moto" speedFactor="1.19" vaporized=""/>
    <tripinfo id="flow_1_increasing_0_N_straight.1" depart="42.00" departLane="N_in_1" departPos="121.65" departSpeed="2.92" departDelay="0.12" arrival="84.00" arrivalLane="S_out_0" arrivalPos="189.60" arrivalSpeed="14.69" duration="42.00" routeLength="278.35" waitingTime="15.00" waitingCount="1" stopTime="0.00" timeLoss="23.81" rerouteNo="0" devices="vehroute_flow_1_increasing_0_N_straight.1 tripinfo_flow_1_increasing_0_N_straight.1" vType="moto" speedFactor="1.15" vaporized=""/>
    <tripinfo id="flow_5_increasing_0_S_straight.1" depart="40.00" departLane="S_in_1" departPos="58.36" departSpeed="11.64" departDelay="0.20" arrival="87.00" arrivalLane="N_out_0" arrivalPos="189.60" arrivalSpeed="11.32" duration="47.00" routeLength="341.64" waitingTime="11.00" waitingCount="1" stopTime="0.00" timeLoss="18.33" rerouteNo="0" devices="vehroute_flow_5_increasing_0_S_straight.1 tripinfo_flow_5_increasing_0_S_straight.1" vType="moto" speedFactor="0.87" vaporized=""/>
    <tripinfo id="flow_9_increasing_0_E_straight.2" depart="77.00" departLane="E_in_1" departPos="52.87" departSpeed="0.38" departDelay="0.08" arrival="107.00" arrivalLane="W_out_0" arrivalPos="189.60" arrivalSpeed="13.77" duration="30.00" routeLength="347.13" waitingTime="0.00" waitingCount="0" stopTime="0.00" timeLoss="4.16" rerouteNo="0" devices="vehroute_flow_9_increasing_0_E_straight.2 tripinfo_flow_9_increasing_0_E_straight.2" vType="moto" speedFactor="0.99" vaporized=""/>
    <tripinfo id="flow_13_increasing_0_W_straight.2" depart="81.00" departLane="W_in_1" departPos="59.51" departSpeed="13.32" departDelay="0.19" arrival="108.00" arrivalLane="E_out_1" arrivalPos="189.60" arrivalSpeed="13.11" duration="27.00" routeLength="340.49" waitingTime="0.00" waitingCount="0" stopTime="0.00" timeLoss="0.80" rerouteNo="0" devices="vehroute_flow_13_increasing_0_W_straight.2 tripinfo_flow_13_increasing_0_W_straight.2" vType="truck" speedFactor="0.97" vaporized=""/>
    <tripinfo id="flow_5_increasing_0_S_straight.2" depart="80.00" departLane="S_in_1" departPos="12.70" departSpeed="12.41" departDelay="0.40" arrival="122.00" arrivalLane="N_out_0" arrivalPos="189.60" arrivalSpeed="12.39" duration="42.00" routeLength="387.30" waitingTime="5.00" waitingCount="1" stopTime="0.00" timeLoss="12.73" rerouteNo="0" devices="vehroute_flow_5_increasing_0_S_straight.2 tripinfo_flow_5_increasing_0_S_straight.2" vType="moto" speedFactor="0.96" vaporized=""/>
    <tripinfo id="flow_1_increasing_0_N_straight.2" depart="84.00" departLane="N_in_1" departPos="107.53" departSpeed="1.11" departDelay="0.23" arrival="123.00" arrivalLane="S_out_0" arrivalPos="189.60" arrivalSpeed="12.17" duration="39.00" routeLength="292.47" waitingTime="7.00" waitingCount="1" stopTime="0.00" timeLoss="15.55" rerouteNo="0" devices="vehroute_flow_1_increasing_0_N_straight.2 tripinfo_flow_1_increasing_0_N_straight.2" vType="moto" speedFactor="0.93" vaporized=""/>
    <tripinfo id="flow_6_increasing_0_S_left.1" depart="100.00" departLane="S_in_0" departPos="73.90" departSpeed="9.22" departDelay="0.50" arrival="126.00" arrivalLane="W_out_1" arrivalPos="189.60" arrivalSpeed="13.84" duration="26.00" routeLength="324.65" waitingTime="0.00" waitingCount="0" stopTime="0.00" timeLoss="3.34" rerouteNo="0" devices="vehroute_flow_6_increasing_0_S_left.1 tripinfo_flow_6_increasing_0_S_left.1" vType="moto" speedFactor="1.08" vaporized=""/>
    <tripinfo id="flow_3_increasing_0_N_right.1" depart="105.00" departLane="N_in_1" departPos="175.36" departSpeed="7.25" departDelay="0.83" arrival="128.00" arrivalLane="W_out_0" arrivalPos="189.60" arrivalSpeed="12.21" duration="23.00" routeLength="212.87" waitingTime="0.00" waitingCount="0" stopTime="0.00" timeLoss="5.24" rerouteNo="0" devices="vehroute_flow_3_increasing_0_N_right.1 tripinfo_flow_3_increasing_0_N_right.1" vType="container" speedFactor="0.91" vaporized=""/>
    <tripinfo id="flow_15_increasing_0_W_right.1" depart="99.00" departLane="W_in_1" departPos="128.68" departSpeed="3.06" departDelay="0.96" arrival="133.00" arrivalLane="S_out_0" arrivalPos="189.60" arrivalSpeed="13.68" duration="34.00" routeLength="259.55" waitingTime="7.00" waitingCount="1" stopTime="0.00" timeLoss="15.22" rerouteNo="0" devices="vehroute_flow_15_increasing_0_W_right.1 tripinfo_flow_15_increasing_0_W_right.1" vType="moto" speedFactor="1.04" vaporized=""/>
    <tripinfo id="flow_14_increasing_0_W_left.1" depart="100.00" departLane="W_in_1" departPos="110.92" departSpeed="11.99" departDelay="0.50" arrival="135.00" arrivalLane="N_out_1" arrivalPos="189.60" arrivalSpeed="13.73" duration="35.00" routeLength="287.63" waitingTime="6.00" waitingCount="1" stopTime="0.00" timeLoss="14.73" rerouteNo="0" devices="vehroute_flow_14_increasing_0_W_left.1 tripinfo_flow_14_increasing_0_W_left.1" vType="moto" speedFactor="1.05" vaporized=""/>
    <tripinfo id="flow_7_increasing_0_S_right.1" depart="98.00" departLane="N_in_1" departPos="66.71" departSpeed="7.87" departDelay="0.44" arrival="136.00" arrivalLane="N_out_0" arrivalPos="189.60" arrivalSpeed="10.63" duration="38.00" routeLength="317.16" waitingTime="0.00" waitingCount="0" stopTime="0.00" timeLoss="7.30" rerouteNo="0" devices="vehroute_flow_7_increasing_0_S_right.1 tripinfo_flow_7_increasing_0_S_right.1" vType="container" speedFactor="0.78" vaporized=""/>
    <tripinfo id="flow_10_increasing_0_E_left.1" depart="102.00" departLane="E_in_1" departPos="185.21" departSpeed="3.91" departDelay="0.48" arrival="139.00" arrivalLane="S_out_0" arrivalPos="189.60" arrivalSpeed="10.64" duration="37.00" routeLength="213.34" waitingTime="11.00" waitingCount="1" stopTime="0.00" timeLoss="15.60" rerouteNo="0" devices="vehroute_flow_10_increasing_0_E_left.1 tripinfo_flow_10_increasing_0_E_left.1" vType="car" speedFactor="0.77" vaporized=""/>
    <tripinfo id="flow_11_increasing_0_E_right.1" depart="102.00" departLane="E_in_0" departPos="19.85" departSpeed="3.71" departDelay="0.48" arrival="139.00" arrivalLane="N_out_0" arrivalPos="189.60" arrivalSpeed="11.24" duration="37.00" routeLength="368.38" waitingTime="0.00" waitingCount="0" stopTime="0.00" timeLoss="5.72" rerouteNo="0" devices="vehroute_flow_11_increasing_0_E_right.1 tripinfo_flow_11_increasing_0_E_right.1" vType="moto" speedFactor="0.88" vaporized=""/>
    <tripinfo id="flow_9_increasing_0_E_straight.3" depart="116.00" departLane="E_in_0" departPos="134.76" departSpeed="5.03" departDelay="0.61" arrival="141.00" arrivalLane="W_out_0" arrivalPos="189.60" arrivalSpeed="11.65" duration="25.00" routeLength="265.24" waitingTime="0.00" waitingCount="0" stopTime="0.00" timeLoss="2.54" rerouteNo="0" devices="vehroute_flow_9_increasing_0_E_straight.3 tripinfo_flow_9_increasing_0_E_straight.3" vType="truck" speedFactor="0.85" vaporized=""/>
    <tripinfo id="flow_5_increasing_0_S_straight.3" depart="120.00" departLane="S_in_1" departPos="108.76" departSpeed="13.07" departDelay="0.60" arrival="146.00" arrivalLane="N_out_0" arrivalPos="189.60" arrivalSpeed="14.35" duration="26.00" routeLength="291.24" waitingTime="0.00" waitingCount="0" stopTime="0.00" timeLoss="5.99" rerouteNo="0" devices="vehroute_flow_5_increasing_0_S_straight.3 tripinfo_flow_5_increasing_0_S_straight.3" vType="moto" speedFactor="1.08" vaporized=""/>
    <tripinfo id="flow_2_increasing_0_N_left.1" depart="98.00" departLane="N_in_0" departPos="8.88" departSpeed="2.82" departDelay="0.44" arrival="149.00" arrivalLane="E_out_1" arrivalPos="189.60" arrivalSpeed="14.40" duration="51.00" routeLength="389.67" waitingTime="12.00" waitingCount="2" stopTime="0.00" timeLoss="25.30" rerouteNo="0" devices="vehroute_flow_2_increasing_0_N_left.1 tripinfo_flow_2_increasing_0_N_left.1" vType="moto" speedFactor="1.12" vaporized=""/>
    <tripinfo id="flow_1_increasing_0_N_straight.3" depart="126.00" departLane="N_in_0" departPos="19.25" departSpeed="10.28" departDelay="0.35" arrival="154.00" arrivalLane="S_out_0" arrivalPos="189.60" arrivalSpeed="14.51" duration="28.00" routeLength="380.75" waitingTime="0.00" waitingCount="0" stopTime="0.00" timeLoss="1.14" rerouteNo="0" devices="vehroute_flow_1_increasing_0_N_straight.3 tripinfo_flow_1_increasing_0_N_straight.3" vType="moto" speedFactor="1.06" vaporized=""/>
    <tripinfo id="flow_13_increasing_0_W_straight.3" depart="122.00" departLane="W_in_1" departPos="77.94" departSpeed="4.74" departDelay="0.79" arrival="159.00" arrivalLane="E_out_0" arrivalPos="189.60" arrivalSpeed="15.44" duration="37.00" routeLength="322.06" waitingTime="7.00" waitingCount="1" stopTime="0.00" timeLoss="16.45" rerouteNo="0" devices="vehroute_flow_13_increasing_0_W_straight.3 tripinfo_flow_13_increasing_0_W_straight.3" vType="moto" speedFactor="1.20" vaporized=""/>
    <tripinfo id="flow_5_increasing_0_S_straight.4" depart="160.00" departLane="S_in_1" departPos="23.57" departSpeed="9.61" departDelay="0.80" arrival="190.00" arrivalLane="N_out_0" arrivalPos="189.60" arrivalSpeed="13.05" duration="30.00" routeLength="376.43" waitingTime="0.00" waitingCount="0" stopTime="0.00" timeLoss="1.42" rerouteNo="0" devices="vehroute_flow_5_increasing_0_S_straight.4 tripinfo_flow_5_increasing_0_S_straight.4" vType="container" speedFactor="0.97" vaporized=""/>
    <tripinfo id="flow_9_increasing_0_E_straight.4" depart="154.00" departLane="E_in_0" departPos="148.08" departSpeed="8.76" departDelay="0.15" arrival="200.00" arrivalLane="W_out_0" arrivalPos="189.60" arrivalSpeed="12.93" duration="46.00" routeLength="251.92" waitingTime="16.00" waitingCount="1" stopTime="0.00" timeLoss="26.73" rerouteNo="0" devices="vehroute_flow_9_increasing_0_E_straight.4 tripinfo_flow_9_increasing_0_E_straight.4" vType="bus" speedFactor="0.95" vaporized=""/>
    <tripinfo id="flow_13_increasing_0_W_straight.4" depart="162.00" departLane="W_in_0" departPos="167.23" departSpeed="1.71" departDelay="0.38" arrival="202.00" arrivalLane="E_out_0" arrivalPos="189.60" arrivalSpeed="11.44" duration="40.00" routeLength="232.77" waitingTime="8.00" waitingCount="1" stopTime="0.00" timeLoss="19.92" rerouteNo="0" devices="vehroute_flow_13_increasing_0_W_straight.4 tripinfo_flow_13_increasing_0_W_straight.4" vType="truck" speedFactor="0.87" vaporized=""/>
    <tripinfo id="flow_1_increasing_0_N_straight.4" depart="168.00" departLane="N_in_0" departPos="8.08" departSpeed="6.42" departDelay="0.46" arrival="210.00" arrivalLane="S_out_0" arrivalPos="189.60" arrivalSpeed="12.18" duration="42.00" routeLength="391.92" waitingTime="5.00" waitingCount="1" stopTime="0.00" timeLoss="12.38" rerouteNo="0" devices="vehroute_flow_1_increasing_0_N_straight.4 tripinfo_flow_1_increasing_0_N_straight.4" vType="car" speedFactor="0.96" vaporized=""/>
    <tripinfo id="flow_4_increasing_0_N_uturn.1" depart="192.00" departLane="N_in_0" departPos="185.47" departSpeed="2.96" departDelay="0.61" arrival="211.00" arrivalLane="N_out_1" arrivalPos="189.60" arrivalSpeed="13.52" duration="19.00" routeLength="198.40" waitingTime="0.00" waitingCount="0" stopTime="0.00" timeLoss="3.83" rerouteNo="0" devices="vehroute_flow_4_increasing_0_N_uturn.1 tripinfo_flow_4_increasing_0_N_uturn.1" vType="moto" speedFactor="1.03" vaporized=""/>
    <tripinfo id="flow_15_increasing_0_W_right.2" depart="197.00" departLane="W_in_0" departPos="121.56" departSpeed="11.33" departDelay="0.92" arrival="221.00" arrivalLane="S_out_0" arrivalPos="189.60" arrivalSpeed="12.49" duration="24.00" routeLength="266.67" waitingTime="0.00" waitingCount="0" stopTime="0.00" timeLoss="2.93" rerouteNo="0" devices="vehroute_flow_15_increasing_0_W_right.2 tripinfo_flow_15_increasing_0_W_right.2" vType="moto" speedFactor="0.95" vaporized=""/>
    <tripinfo id="flow_16_increasing_0_W_uturn.1" depart="195.00" departLane="W_in_0" departPos="81.69" departSpeed="10.54" departDelay="0.83" arrival="222.00" arrivalLane="W_out_1" arrivalPos="189.60" arrivalSpeed="15.24" duration="27.00" routeLength="302.18" waitingTime="0.00" waitingCount="0" stopTime="0.00" timeLoss="6.65" rerouteNo="0" devices="vehroute_flow_16_increasing_0_W_uturn.1 tripinfo_flow_16_increasing_0_W_uturn.1" vType="moto" speedFactor="1.14" vaporized=""/>
    <tripinfo id="flow_13_increasing_0_W_straight.5" depart="203.00" departLane="W_in_1" departPos="174.17" departSpeed="0.01" departDelay="0.98" arrival="222.00" arrivalLane="E_out_1" arrivalPos="189.60" arrivalSpeed="14.75" duration="19.00" routeLength="225.83" waitingTime="0.00" waitingCount="0" stopTime="0.00" timeLoss="3.74" rerouteNo="0" devices="vehroute_flow_13_increasing_0_W_straight.5 tripinfo_flow_13_increasing_0_W_straight.5" vType="moto" speedFactor="1.07" vaporized=""/>
    <tripinfo id="flow_9_increasing_0_E_straight.5" depart="193.00" departLane="E_in_1" departPos="171.48" departSpeed="2.13" departDelay="0.69" arrival="223.00" arrivalLane="W_out_0" arrivalPos="189.60" arrivalSpeed="12.80" duration="30.00" routeLength="228.52" waitingTime="6.00" waitingCount="1" stopTime="0.00" timeLoss="13.04" rerouteNo="0" devices="vehroute_flow_9_increasing_0_E_straight.5 tripinfo_flow_9_increasing_0_E_straight.5" vType="moto" speedFactor="1.00" vaporized=""/>
    <tripinfo id="flow_11_increasing_0_E_right.2" depart="204.00" departLane="E_in_1" departPos="155.35" departSpeed="12.29" departDelay="0.95" arrival="225.00" arrivalLane="N_out_0" arrivalPos="189.60" arrivalSpeed="13.73" duration="21.00" routeLength="232.88" waitingTime="0.00" waitingCount="0" stopTime="0.00" timeLoss="2.90" rerouteNo="0" devices="vehroute_flow_11_increasing_0_E_right.2 tripinfo_flow_11_increasing_0_E_right.2" vType="moto" speedFactor="1.04" vaporized=""/>
    <tripinfo id="flow_14_increasing_0_W_left.2" depart="200.00" departLane="W_in_1" departPos="89.17" departSpeed="10.29" departDelay="1.00" arrival="228.00" arrivalLane="N_out_1" arrivalPos="189.60" arrivalSpeed="12.82" duration="28.00" routeLength="309.38" waitingTime="0.00" waitingCount="0" stopTime="0.00" timeLoss="2.64" rerouteNo="0" devices="vehroute_flow_14_increasing_0_W_left.2 tripinfo_flow_14_increasing_0_W_left.2" vType="car" speedFactor="0.93" vaporized=""/>
    <tripinfo id="flow_10_increasing_0_E_left.2" depart="204.00" departLane="E_in_1" departPos="78.09" departSpeed="7.72" departDelay="0.95" arrival="228.00" arrivalLane="S_out_1" arrivalPos="189.60" arrivalSpeed="14.74" duration="24.00" routeLength="320.46" waitingTime="0.00" waitingCount="0" stopTime="0.00" timeLoss="2.92" rerouteNo="0" devices="vehroute_flow_10_increasing_0_E_left.2 tripinfo_flow_10_increasing_0_E_left.2" vType="moto" speedFactor="1.14" vaporized=""/>
    <tripinfo id="flow_12_increasing_0_E_uturn.1" depart="198.00" departLane="E_in_0" departPos="104.14" departSpeed="11.66" departDelay="0.96" arrival="229.00" arrivalLane="E_out_1" arrivalPos="189.60" arrivalSpeed="11.83" duration="31.00" routeLength="279.73" waitingTime="1.00" waitingCount="1" stopTime="0.00" timeLoss="6.68" rerouteNo="0" devices="vehroute_flow_12_increasing_0_E_uturn.1 tripinfo_flow_12_increasing_0_E_uturn.1" vType="moto" speedFactor="0.89" vaporized=""/>
    <tripinfo id="flow_7_increasing_0_S_right.2" depart="196.00" departLane="N_in_1" departPos="108.70" departSpeed="8.13" departDelay="0.88" arrival="235.00" arrivalLane="N_out_1" arrivalPos="189.60" arrivalSpeed="12.86" duration="39.00" routeLength="275.17" waitingTime="9.00" waitingCount="1" stopTime="0.00" timeLoss="17.74" rerouteNo="0" devices="vehroute_flow_7_increasing_0_S_right.2 tripinfo_flow_7_increasing_0_S_right.2" vType="car" speedFactor="0.99" vaporized=""/>
    <tripinfo id="flow_6_increasing_0_S_left.2" depart="200.00" departLane="S_in_0" departPos="31.76" departSpeed="12.89" departDelay="1.00" arrival="235.00" arrivalLane="W_out_1" arrivalPos="189.60" arrivalSpeed="13.62" duration="35.00" routeLength="366.79" waitingTime="2.00" waitingCount="1" stopTime="0.00" timeLoss="7.82" rerouteNo="0" devices="vehroute_flow_6_increasing_0_S_left.2 tripinfo_flow_6_increasing_0_S_left.2" vType="moto" speedFactor="1.03" vaporized=""/>
    <tripinfo id="flow_5_increasing_0_S_straight.5" depart="200.00" departLane="S_in_1" departPos="168.21" departSpeed="12.78" departDelay="1.00" arrival="236.00" arrivalLane="N_out_0" arrivalPos="189.60" arrivalSpeed="12.82" duration="36.00" routeLength="231.79" waitingTime="11.00" waitingCount="1" stopTime="0.00" timeLoss="17.92" rerouteNo="0" devices="vehroute_flow_5_increasing_0_S_straight.5 tripinfo_flow_5_increasing_0_S_straight.5" vType="moto" speedFactor="0.94" vaporized=""/>
    <tripinfo id="flow_3_increasing_0_N_right.2" depart="209.00" departLane="N_in_0" departPos="92.42" departSpeed="12.50" departDelay="0.67" arrival="237.00" arrivalLane="W_out_0" arrivalPos="189.60" arrivalSpeed="11.36" duration="28.00" routeLength="295.81" waitingTime="0.00" waitingCount="0" stopTime="0.00" timeLoss="2.98" rerouteNo="0" devices="vehroute_flow_3_increasing_0_N_right.2 tripinfo_flow_3_increasing_0_N_right.2" vType="moto" speedFactor="0.90" vaporized=""/>
    <tripinfo id="flow_1_increasing_0_N_straight.5" depart="210.00" departLane="N_in_0" departPos="87.76" departSpeed="12.03" departDelay="0.58" arrival="239.00" arrivalLane="S_out_0" arrivalPos="189.60" arrivalSpeed="14.57" duration="29.00" routeLength="312.24" waitingTime="0.00" waitingCount="0" stopTime="0.00" timeLoss="7.77" rerouteNo="0" devices="vehroute_flow_1_increasing_0_N_straight.5 tripinfo_flow_1_increasing_0_N_straight.5" vType="moto" speedFactor="1.10" vaporized=""/>
    <tripinfo id="flow_2_increasing_0_N_left.2" depart="196.00" departLane="N_in_0" departPos="71.94" departSpeed="3.46" departDelay="0.88" arrival="246.00" arrivalLane="E_out_1" arrivalPos="189.60" arrivalSpeed="11.98" duration="50.00" routeLength="326.61" waitingTime="4.00" waitingCount="1" stopTime="0.00" timeLoss="22.97" rerouteNo="0" devices="vehroute_flow_2_increasing_0_N_left.2 tripinfo_flow_2_increasing_0_N_left.2" vType="container" speedFactor="0.90" vaporized=""/>
    <tripinfo id="flow_8_increasing_0_S_uturn.1" depart="211.00" departLane="S_in_1" departPos="39.34" departSpeed="4.15" departDelay="0.47" arrival="246.00" arrivalLane="S_out_1" arrivalPos="189.60" arrivalSpeed="12.44" duration="35.00" routeLength="344.53" waitingTime="0.00" waitingCount="0" stopTime="0.00" timeLoss="5.74" rerouteNo="0" devices="vehroute_flow_8_increasing_0_S_uturn.1 tripinfo_flow_8_increasing_0_S_uturn.1" vType="car" speedFactor="0.90" vaporized=""/>
    <tripinfo id="flow_5_increasing_0_S_straight.6" depart="239.00" departLane="S_in_0" departPos="69.49" departSpeed="6.79" departDelay="0.19" arrival="263.00" arrivalLane="N_out_0" arrivalPos="189.60" arrivalSpeed="14.45" duration="24.00" routeLength="330.51" waitingTime="0.00" waitingCount="0" stopTime="0.00" timeLoss="2.16" rerouteNo="0" devices="vehroute_flow_5_increasing_0_S_straight.6 tripinfo_flow_5_increasing_0_S_straight.6" vType="moto" speedFactor="1.10" vaporized=""/>
    <tripinfo id="flow_9_increasing_0_E_straight.6" depart="231.00" departLane="E_in_0" departPos="61.32" departSpeed="6.33" departDelay="0.23" arrival="284.00" arrivalLane="W_out_0" arrivalPos="189.60" arrivalSpeed="13.83" duration="53.00" routeLength="338.68" waitingTime="20.00" waitingCount="1" stopTime="0.00" timeLoss="28.79" rerouteNo="0" devices="vehroute_flow_9_increasing_0_E_straight.6 tripinfo_flow_9_increasing_0_E_straight.6" vType="moto" speedFactor="1.02" vaporized=""/>
    <tripinfo id="flow_13_increasing_0_W_straight.6" depart="243.00" departLane="W_in_1" departPos="109.89" departSpeed="2.13" departDelay="0.58" arrival="285.00" arrivalLane="E_out_0" arrivalPos="189.60" arrivalSpeed="13.31" duration="42.00" routeLength="290.11" waitingTime="11.00" waitingCount="1" stopTime="0.00" timeLoss="19.72" rerouteNo="0" devices="vehroute_flow_13_increasing_0_W_straight.6 tripinfo_flow_13_increasing_0_W_straight.6" vType="moto" speedFactor="0.97" vaporized=""/>