<?xml version="1.0" encoding="UTF-8"?>

<!-- generated on 2025-12-09 23:42:37 by Eclipse SUMO sumo Version 1.18.0
<configuration xmlns:xsi="http://www.w3.org/2001/XMLSchema-instance" xsi:noNamespaceSchemaLocation="http://sumo.dlr.de/xsd/sumoConfiguration.xsd">

    <input>
        <net-file value="nets/120p4k/net.net.xml"/>
        <route-files value="nets/120p4k/route_temp_784_139142733854512_59322201.rou.xml"/>
    </input>

    <output>
        <summary-output value="result_ddqn_1.5_0.1/summary_ep_3.xml"/>
        <tripinfo-output value="result_ddqn_1.5_0.1/tripinfo_ep_3.xml"/>
        <vehroute-output value="result_ddqn_1.5_0.1/vehroute_ep_3.xml"/>
    </output>

    <time>
        <begin value="0"/>
    </time>

    <report>
        <verbose value="true"/>
        <no-warnings value="true"/>
        <no-step-log value="true"/>
    </report>

    <traci_server>
        <remote-port value="50949"/>
    </traci_server>

    <gui_only>
        <gui-settings-file value="nets/120p4k/gui-settings.xml"/>
        <quit-on-end value="true"/>
    </gui_only>

</configuration>
-->

<routes xmlns:xsi="http://www.w3.org/2001/XMLSchema-instance" xsi:noNamespaceSchemaLocation="http://sumo.dlr.de/xsd/routes_file.xsd">
    <vehicle id="flow_14_increasing_0_W_left.0" type="moto" depart="0.00" departLane="1" departPos="182.8773" departSpeed="5.6108" speedFactor="1.0101" arrival="19.00">
        <route edges="N_in N_out"/>
    </vehicle>

    <vehicle id="flow_3_increasing_0_N_right.0" type="moto" depart="0.00" departLane="0" departPos="103.3842" departSpeed="3.8146" speedFactor="1.1088" arrival="24.00">
        <route edges="N_in W_out"/>
    </vehicle>

    <vehicle id="flow_6_increasing_0_S_left.0" type="moto" depart="0.00" departLane="1" departPos="166.0107" departSpeed="0.7376" speedFactor="0.8806" arrival="25.00">
        <route edges="S_in W_out"/>
    </vehicle>

    <vehicle id="flow_8_increasing_0_S_uturn.0" type="moto" depart="0.00" departLane="0" departPos="120.1072" departSpeed="4.4837" speedFactor="1.0505" arrival="25.00">
        <route edges="S_in S_out"/>
    </vehicle>

    <vehicle id="flow_11_increasing_0_E_right.0" type="bus" depart="0.00" departLane="1" departPos="144.9496" departSpeed="4.0187" speedFactor="0.9581" arrival="29.00">
        <route edges="N_in N_out"/>
    </vehicle>

    <vehicle id="flow_4_increasing_0_N_uturn.0" type="moto" depart="0.00" departLane="1" departPos="127.6015" departSpeed="0.0761" speedFactor="0.9074" arrival="32.00">
        <route edges="N_in N_out"/>
    </vehicle>

    <vehicle id="flow_7_increasing_0_S_right.0" type="bus" depart="0.00" departLane="0" departPos="8.759" departSpeed="8.4712" speedFactor="0.8915" arrival="36.00">
        <route edges="S_in E_out"/>
    </vehicle>

    <vehicle id="flow_16_increasing_0_W_uturn.0" type="moto" depart="0.00" departLane="0" departPos="126.6766" departSpeed="11.7148" speedFactor="1.0383" arrival="36.00">
        <route edges="W_in W_out"/>
    </vehicle>

    <vehicle id="flow_9_increasing_0_E_straight.0" type="car" depart="0.00" departLane="0" departPos="168.2937" departSpeed="10.7269" speedFactor="0.9362" arrival="37.00">
        <route edges="E_in W_out"/>
    </vehicle>

    <vehicle id="flow_5_increasing_0_S_straight.0" type="moto" depart="0.00" departLane="1" departPos="107.3659" departSpeed="7.2113" speedFactor="1.1475" arrival="38.00">
        <route edges="W_in E_out"/>
    </vehicle>

    <vehicle id="flow_15_increasing_0_W_right.0" type="moto" depart="0.00" departLane="0" departPos="108.377" departSpeed="2.6276" speedFactor="0.8472" arrival="39.00">
        <route edges="W_in S_out"/>
    </vehicle>

    <vehicle id="flow_13_increasing_0_W_straight.0" type="bus" depart="0.00" departLane="0" departPos="24.5296" departSpeed="3.9683" speedFactor="0.8617" arrival="41.00">
        <route edges="W_in E_out"/>
    </vehicle>

    <vehicle id="flow_10_increasing_0_E_left.0" type="car" depart="0.00" departLane="0" departPos="44.8816" departSpeed="8.1909" speedFactor="1.0826" arrival="43.00">
        <route edges="E_in S_out"/>
    </vehicle>

    <vehicle id="flow_12_increasing_0_E_uturn.0" type="moto" depart="0.00" departLane="0" departPos="5.6544" departSpeed="13.7593" speedFactor="1.0348" arrival="44.00">
        <route edges="E_in E_out"/>
    </vehicle>

    <vehicle id="flow_2_increasing_0_N_left.0" type="moto" depart="0.00" departLane="1" departPos="8.2688" departSpeed="8.3291" speedFactor="1.0157" arrival="49.00">
        <route edges="N_in E_out"/>
    </vehicle>

    <vehicle id="flow_1_increasing_0_N_straight.0" type="truck" depart="0.00" departLane="0" departPos="8.6229" departSpeed="8.5053" speedFactor="0.8588" arrival="55.00">
        <route edges="N_in S_out"/>
    </vehicle>

    <vehicle id="flow_9_increasing_0_E_straight.1" type="moto" depart="39.00" departLane="0" departPos="131.129" departSpeed="9.5396" speedFactor="1.1582" arrival="58.00">
        <route edges="E_in W_out"/>
    </vehicle>

    <vehicle id="flow_13_increasing_0_W_straight.1" type="moto" depart="41.00" departLane="1" departPos="31.9285" departSpeed="9.2811" speedFactor="1.1853" arrival="67.00">
        <route edges="W_in E_out"/>
    </vehicle>

    <vehicle id="flow_5_increasing_0_S_straight.1" type="moto" depart="40.00" departLane="1" departPos="58.3562" departSpeed="11.6446" speedFactor="0.8727" arrival="70.00">
        <route edges="W_in E_out"/>
    </vehicle>

    <vehicle id="flow_1_increasing_0_N_straight.1" type="moto" depart="42.00" departLane="1" departPos="121.6549" departSpeed="2.9213" speedFactor="1.1462" arrival="84.00">
        <route edges="N_in S_out"/>
    </vehicle>

    <vehicle id="flow_9_increasing_0_E_straight.2" type="moto" depart="77.00" departLane="1" departPos="52.8684" departSpeed="0.3845" speedFactor="0.9938" arrival="107.00">
        <route edges="E_in W_out"/>
    </vehicle>

    <vehicle id="flow_13_increasing_0_W_straight.2" type="truck" depart="81.00" departLane="1" departPos="59.5081" departSpeed="13.3195" speedFactor="0.9657" arrival="108.00">
        <route edges="W_in E_out"/>
    </vehicle>

    <vehicle id="flow_5_increasing_0_S_straight.2" type="moto" depart="80.00" departLane="1" departPos="12.6982" departSpeed="12.4143" speedFactor="0.9623" arrival="111.00">
        <route edges="W_in E_out"/>
    </vehicle>

    <vehicle id="flow_1_increasing_0_N_straight.2" type="moto" depart="84.00" departLane="1" departPos="107.5311" departSpeed="1.1094" speedFactor="0.9279" arrival="123.00">
        <route edges="N_in S_out"/>
    </vehicle>

    <vehicle id="flow_6_increasing_0_S_left.1" type="moto" depart="100.00" departLane="0" departPos="156.5209" departSpeed="9.2239" speedFactor="1.0788" arrival="123.00">
        <route edges="S_in W_out"/>
    </vehicle>

    <vehicle id="flow_11_increasing_0_E_right.1" type="moto" depart="102.00" departLane="1" departPos="118.5435" departSpeed="10.7169" speedFactor="0.8806" arrival="129.00">
        <route edges="N_in N_out"/>
    </vehicle>

    <vehicle id="flow_14_increasing_0_W_left.1" type="moto" depart="100.00" departLane="0" departPos="69.2372" departSpeed="6.0614" speedFactor="1.0453" arrival="130.00">
        <route edges="N_in N_out"/>
    </vehicle>

    <vehicle id="flow_15_increasing_0_W_right.1" type="moto" depart="99.00" departLane="1" departPos="128.6773" departSpeed="3.0596" speedFactor="1.0365" arrival="133.00">
        <route edges="W_in S_out"/>
    </vehicle>

    <vehicle id="flow_7_increasing_0_S_right.1" type="container" depart="98.00" departLane="1" departPos="66.71" departSpeed="7.8717" speedFactor="0.7845" arrival="134.00">
        <route edges="S_in E_out"/>
    </vehicle>

    <vehicle id="flow_10_increasing_0_E_left.1" type="car" depart="102.00" departLane="1" departPos="57.3992" departSpeed="0.2554" speedFactor="0.7706" arrival="141.00">
        <route edges="E_in S_out"/>
    </vehicle>

    <vehicle id="flow_5_increasing_0_S_straight.3" type="moto" depart="120.00" departLane="0" departPos="125.4807" departSpeed="6.9771" speedFactor="1.0764" arrival="141.00">
        <route edges="W_in E_out"/>
    </vehicle>

    <vehicle id="flow_9_increasing_0_E_straight.3" type="truck" depart="116.00" departLane="0" departPos="132.6219" departSpeed="4.0582" speedFactor="0.8515" arrival="142.00">
        <route edges="E_in W_out"/>
    </vehicle>

    <vehicle id="flow_2_increasing_0_N_left.1" type="moto" depart="98.00" departLane="0" departPos="8.8817" departSpeed="2.8196" speedFactor="1.1228" arrival="145.00">
        <route edges="N_in E_out"/>
    </vehicle>

    <vehicle id="flow_1_increasing_0_N_straight.3" type="moto" depart="126.00" departLane="0" departPos="26.7631" departSpeed="10.4846" speedFactor="1.0575" arrival="153.00">
        <route edges="N_in S_out"/>
    </vehicle>

    <vehicle id="flow_3_increasing_0_N_right.1" type="container" depart="105.00" departLane="1" departPos="56.1823" departSpeed="6.2634" speedFactor="0.9146" arrival="157.00">
        <route edges="N_in W_out"/>
    </vehicle>

    <vehicle id="flow_13_increasing_0_W_straight.3" type="moto" depart="122.00" departLane="1" departPos="135.0364" departSpeed="4.4993" speedFactor="1.2027" arrival="159.00">
        <route edges="W_in E_out"/>
    </vehicle>

    <vehicle id="flow_1_increasing_0_N_straight.4" type="car" depart="168.00" departLane="0" departPos="125.7621" departSpeed="4.6059" speedFactor="0.9617" arrival="191.00">
        <route edges="N_in S_out"/>
    </vehicle>

    <vehicle id="flow_13_increasing_0_W_straight.4" type="truck" depart="162.00" departLane="1" departPos="29.1154" departSpeed="10.2139" speedFactor="0.8691" arrival="198.00">
        <route edges="W_in E_out"/>
    </vehicle>

    <vehicle id="flow_9_increasing_0_E_straight.4" type="bus" depart="154.00" departLane="0" departPos="91.0122" departSpeed="4.92" speedFactor="0.9525" arrival="200.00">
        <route edges="E_in W_out"/>
    </vehicle>

    <vehicle id="flow_5_increasing_0_S_straight.4" type="container" depart="160.00" departLane="0" departPos="128.0429" departSpeed="5.2706" speedFactor="0.9706" arrival="206.00">
        <route edges="W_in E_out"/>
    </vehicle>

    <vehicle id="flow_7_increasing_0_S_right.2" type="car" depart="196.00" departLane="0" departPos="185.9893" departSpeed="0.2007" speedFactor="0.9870" arrival="219.00">
        <route edges="S_in E_out"/>
    </vehicle>

    <vehicle id="flow_4_increasing_0_N_uturn.1" type="moto" depart="192.00" departLane="0" departPos="52.573" departSpeed="8.4201" speedFactor="1.0283" arrival="226.00">
        <route edges="N_in N_out"/>
    </vehicle>

    <vehicle id="flow_2_increasing_0_N_left.2" type="container" depart="196.00" departLane="0" departPos="179.131" departSpeed="5.9893" speedFactor="0.8985" arrival="227.00">
        <route edges="N_in E_out"/>
    </vehicle>

    <vehicle id="flow_9_increasing_0_E_straight.5" type="moto" depart="193.00" departLane="1" departPos="112.3734" departSpeed="9.4297" speedFactor="0.9964" arrival="232.00">
        <route edges="E_in W_out"/>
    </vehicle>

    <vehicle id="flow_16_increasing_0_W_uturn.1" type="moto" depart="195.00" departLane="1" departPos="162.4039" departSpeed="1.6348" speedFactor="1.1432" arrival="232.00">
        <route edges="W_in W_out"/>
    </vehicle>

    <vehicle id="flow_15_increasing_0_W_right.2" type="moto" depart="197.00" departLane="0" departPos="171.2778" departSpeed="6.3853" speedFactor="0.9517" arrival="232.00">
        <route edges="W_in S_out"/>
    </vehicle>

    <vehicle id="flow_13_increasing_0_W_straight.5" type="moto" depart="203.00" departLane="1" departPos="155.3486" departSpeed="12.6235" speedFactor="1.0668" arrival="233.00">
        <route edges="W_in E_out"/>
    </vehicle>

    <vehicle id="flow_5_increasing_0_S_straight.5" type="moto" depart="200.00" departLane="0" departPos="0.1622" departSpeed="4.4152" speedFactor="0.9374" arrival="234.00">
        <route edges="W_in E_out"/>
    </vehicle>

    <vehicle id="flow_10_increasing_0_E_left.2" type="moto" depart="204.00" departLane="0" departPos="92.4194" departSpeed="15.8125" speedFactor="1.1413" arrival="238.00">
        <route edges="E_in S_out"/>
    </vehicle>

    <vehicle id="flow_12_increasing_0_E_uturn.1" type="moto" depart="198.00" departLane="0" departPos="151.2924" departSpeed="4.2696" speedFactor="0.8882" arrival="239.00">
        <route edges="E_in E_out"/>
    </vehicle>

    <vehicle id="flow_1_increasing_0_N_straight.5" type="moto" depart="210.00" departLane="0" departPos="61.3216" departSpeed="6.8541" speedFactor="1.1043" arrival="244.00">
        <route edges="N_in S_out"/>
    </vehicle>

    <vehicle id="flow_14_increasing_0_W_left.2" type="car" depart="200.00" departLane="0" departPos="78.0885" departSpeed="11.726" speedFactor="0.9279" arrival="246.00">
        <route edges="N_in N_out"/>
    </vehicle>

    <vehicle id="flow_11_increasing_0_E_right.2" type="moto" depart="204.00" departLane="0" departPos="87.7633" departSpeed="11.3231" speedFactor="1.0390" arrival="247.00">
        <route edges="N_in N_out"/>
    </vehicle>

    <vehicle id="flow_6_increasing_0_S_left.2" type="moto" depart="200.00" departLane="0" departPos="2.2119" departSpeed="13.1073" speedFactor="1.0265" arrival="248.00">
        <route edges="S_in W_out"/>
    </vehicle>

    <vehicle id="flow_3_increasing_0_N_right.2" type="moto" depart="209.00" departLane="1" departPos="39.3431" departSpeed="4.1729" speedFactor="0.9020" arrival="248.00">
        <route edges="N_in W_out"/>
    </vehicle>

    <vehicle id="flow_8_increasing_0_S_uturn.1" type="car" depart="211.00" departLane="0" departPos="69.4902" departSpeed="5.5465" speedFactor="0.8975" arrival="251.00">
        <route edges="S_in S_out"/>
    </vehicle>

    <vehicle id="flow_9_increasing_0_E_straight.6" type="moto" depart="231.00" departLane="1" departPos="109.8853" departSpeed="2.2353" speedFactor="1.0203" arrival="256.00">
        <route edges="E_in W_out"/>
    </vehicle>

    <vehicle id="flow_5_increasing_0_S_straight.6" type="moto" depart="239.00" departLane="1" departPos="21.7404" departSpeed="12.0531" speedFactor="1.0983" arrival="265.00">
        <route edges="W_in E_out"/>
    </vehicle>

    <vehicle id="flow_13_increasing_0_W_straight.6" type="moto" depart="243.00" departLane="0" departPos="43.1808" departSpeed="3.0503" speedFactor="0.9711" arrival="273.00">
        <route edges="W_in E_out"/>
    </vehicle>

    <vehicle id="flow_1_increasing_0_N_straight.6" type="moto" depart="252.00" departLane="0" departPos="60.8307" departSpeed="12.47" speedFactor="0.9756" arrival="280.00">
        <route edges="N_in S_out"/>
    </vehicle>

    <vehicle id="flow_9_increasing_0_E_straight.7" type="moto" depart="270.00" departLane="1" departPos="88.3207" departSpeed="11.9262" speedFactor="1.0085" arrival="294.00">
        <route edges="E_in W_out"/>
    </vehicle>

    <vehicle id="flow_5_increasing_0_S_straight.7" type="truck" depart="279.00" departLane="0" departPos="178.3578" departSpeed="2.9959" speedFactor="0.9040" arrival="301.00">
        <route edges="W_in E_out"/>
    </vehicle>

    <vehicle id="flow_13_increasing_0_W_straight.7" type="moto" depart="283.00" departLane="1" departPos="107.805" departSpeed="10.2122" speedFactor="0.8003" arrival="311.00">
        <route edges="W_in E_out"/>
    </vehicle>

    <vehicle id="flow_7_increasing_0_S_right.3" type="moto" depart="293.00" departLane="1" departPos="142.1182" departSpeed="0.5142" speedFactor="1.0682" arrival="316.00">
        <route edges="S_in E_out"/>
    </vehicle>

    <vehicle id="flow_14_increasing_0_W_left.3" type="moto" depart="299.00" departLane="1" departPos="186.2427" departSpeed="2.9581" speedFactor="1.1166" arrival="317.00">
        <route edges="N_in N_out"/>
    </vehicle>

    <vehicle id="flow_19_increasing_300_N_right.0" type="moto" depart="300.00" departLane="0" departPos="173.6034" departSpeed="3.5508" speedFactor="1.2976" arrival="318.00">
        <route edges="N_in W_out"/>
    </vehicle>

    <vehicle id="flow_18_increasing_300_N_left.0" type="car" depart="300.00" departLane="1" departPos="178.6166" departSpeed="3.4093" speedFactor="1.0648" arrival="320.00">
        <route edges="N_in E_out"/>
    </vehicle>

    <vehicle id="flow_2_increasing_0_N_left.3" type="moto" depart="293.00" departLane="0" departPos="16.037" departSpeed="5.9571" speedFactor="1.0626" arrival="323.00">
        <route edges="N_in E_out"/>
    </vehicle>

    <vehicle id="flow_6_increasing_0_S_left.3" type="moto" depart="299.00" departLane="1" departPos="140.1205" departSpeed="12.6855" speedFactor="1.1705" arrival="324.00">
        <route edges="S_in W_out"/>
    </vehicle>

    <vehicle id="flow_1_increasing_0_N_straight.7" type="moto" depart="294.00" departLane="1" departPos="86.4019" departSpeed="7.7126" speedFactor="0.8330" arrival="325.00">
        <route edges="N_in S_out"/>
    </vehicle>

    <vehicle id="flow_25_increasing_300_E_straight.0" type="moto" depart="300.00" departLane="0" departPos="174.1059" departSpeed="0.5041" speedFactor="1.1571" arrival="329.00">
        <route edges="E_in W_out"/>
    </vehicle>

    <vehicle id="flow_15_increasing_0_W_right.3" type="moto" depart="295.00" departLane="1" departPos="16.1283" departSpeed="7.2618" speedFactor="0.8878" arrival="331.00">
        <route edges="W_in S_out"/>
    </vehicle>

    <vehicle id="flow_28_increasing_300_E_uturn.0" type="truck" depart="300.00" departLane="1" departPos="90.2975" departSpeed="6.3643" speedFactor="0.9032" arrival="333.00">
        <route edges="E_in E_out"/>
    </vehicle>

    <vehicle id="flow_30_increasing_300_W_left.0" type="moto" depart="300.00" departLane="1" departPos="168.3233" departSpeed="4.8785" speedFactor="1.0281" arrival="334.00">
        <route edges="W_in N_out"/>
    </vehicle>

    <vehicle id="flow_24_increasing_300_S_uturn.0" type="bus" depart="300.00" departLane="1" departPos="9.2851" departSpeed="8.7331" speedFactor="1.0917" arrival="335.00">
        <route edges="W_in S_out"/>
    </vehicle>

    <vehicle id="flow_29_increasing_300_W_straight.0" type="car" depart="300.00" departLane="1" departPos="90.8186" departSpeed="11.4288" speedFactor="1.0323" arrival="335.00">
        <route edges="W_in E_out"/>
    </vehicle>

    <vehicle id="flow_31_increasing_300_W_right.0" type="moto" depart="300.00" departLane="1" departPos="40.9491" departSpeed="1.8402" speedFactor="0.8620" arrival="335.00">
        <route edges="W_in S_out"/>
    </vehicle>

    <vehicle id="flow_27_increasing_300_E_right.0" type="truck" depart="300.00" departLane="1" departPos="103.2677" departSpeed="10.2935" speedFactor="0.9315" arrival="336.00">
        <route edges="E_in N_out"/>
    </vehicle>

    <vehicle id="flow_32_increasing_300_W_uturn.0" type="moto" depart="300.00" departLane="0" departPos="45.7887" departSpeed="9.4292" speedFactor="1.0387" arrival="337.00">
        <route edges="W_in W_out"/>
    </vehicle>

    <vehicle id="flow_26_increasing_300_E_left.0" type="moto" depart="300.00" departLane="1" departPos="53.9882" departSpeed="4.7175" speedFactor="0.9897" arrival="339.00">
        <route edges="E_in S_out"/>
    </vehicle>

    <vehicle id="flow_23_increasing_300_S_right.0" type="moto" depart="300.00" departLane="0" departPos="2.521" departSpeed="4.9005" speedFactor="0.9645" arrival="343.00">
        <route edges="S_in E_out"/>
    </vehicle>

    <vehicle id="flow_20_increasing_300_N_uturn.0" type="moto" depart="300.00" departLane="0" departPos="65.7387" departSpeed="2.1927" speedFactor="0.8391" arrival="346.00">
        <route edges="N_in N_out"/>
    </vehicle>

    <vehicle id="flow_17_increasing_300_N_straight.0" type="truck" depart="300.00" departLane="1" departPos="2.2093" departSpeed="1.4207" speedFactor="0.9320" arrival="347.00">
        <route edges="N_in S_out"/>
    </vehicle>

    <vehicle id="flow_22_increasing_300_S_left.0" type="moto" depart="300.00" departLane="1" departPos="58.7528" departSpeed="12.8443" speedFactor="1.1157" arrival="348.00">
        <route edges="S_in W_out"/>
    </vehicle>

    <vehicle id="flow_21_increasing_300_S_straight.0" type="car" depart="300.00" departLane="1" departPos="57.3268" departSpeed="6.3444" speedFactor="1.0212" arrival="356.00">
        <route edges="W_in W_out"/>
    </vehicle>

    <vehicle id="flow_25_increasing_300_E_straight.1" type="moto" depart="328.00" departLane="0" departPos="124.2821" departSpeed="12.4695" speedFactor="1.0039" arrival="356.00">
        <route edges="E_in W_out"/>
    </vehicle>

    <vehicle id="flow_21_increasing_300_S_straight.1" type="moto" depart="330.00" departLane="0" departPos="140.1793" departSpeed="14.5547" speedFactor="1.1421" arrival="358.00">
        <route edges="W_in W_out"/>
    </vehicle>

    <vehicle id="flow_29_increasing_300_W_straight.1" type="truck" depart="330.00" departLane="0" departPos="5.0473" departSpeed="5.1241" speedFactor="1.0325" arrival="362.00">
        <route edges="W_in E_out"/>
    </vehicle>

    <vehicle id="flow_17_increasing_300_N_straight.1" type="moto" depart="331.00" departLane="1" departPos="75.2144" departSpeed="6.7639" speedFactor="1.0387" arrival="369.00">
        <route edges="N_in S_out"/>
    </vehicle>

    <vehicle id="flow_29_increasing_300_W_straight.2" type="truck" depart="360.00" departLane="0" departPos="170.8427" departSpeed="6.8855" speedFactor="0.9784" arrival="383.00">
        <route edges="W_in E_out"/>
    </vehicle>

    <vehicle id="flow_25_increasing_300_E_straight.2" type="truck" depart="356.00" departLane="1" departPos="159.8742" departSpeed="6.0318" speedFactor="0.8196" arrival="388.00">
        <route edges="E_in W_out"/>
    </vehicle>

    <vehicle id="flow_27_increasing_300_E_right.1" type="car" depart="369.00" departLane="0" departPos="172.0661" departSpeed="12.9313" speedFactor="0.9547" arrival="389.00">
        <route edges="E_in N_out"/>
    </vehicle>

    <vehicle id="flow_21_increasing_300_S_straight.2" type="moto" depart="360.00" departLane="0" departPos="45.6162" departSpeed="13.4454" speedFactor="1.0448" arrival="390.00">
        <route edges="W_in W_out"/>
    </vehicle>

    <vehicle id="flow_23_increasing_300_S_right.1" type="car" depart="373.00" departLane="1" departPos="187.4776" departSpeed="0.1105" speedFactor="1.0144" arrival="394.00">
        <route edges="S_in E_out"/>
    </vehicle>

    <vehicle id="flow_17_increasing_300_N_straight.2" type="moto" depart="361.00" departLane="0" departPos="108.1488" departSpeed="9.7715" speedFactor="1.0140" arrival="395.00">
        <route edges="N_in S_out"/>
    </vehicle>

    <vehicle id="flow_18_increasing_300_N_left.1" type="moto" depart="372.00" departLane="1" departPos="168.8768" departSpeed="11.4074" speedFactor="1.0699" arrival="395.00">
        <route edges="N_in E_out"/>
    </vehicle>

    <vehicle id="flow_22_increasing_300_S_left.1" type="moto" depart="372.00" departLane="0" departPos="161.6079" departSpeed="1.2387" speedFactor="1.1365" arrival="397.00">
        <route edges="S_in W_out"/>
    </vehicle>

    <vehicle id="flow_26_increasing_300_E_left.1" type="moto" depart="375.00" departLane="0" departPos="8.1725" departSpeed="3.9907" speedFactor="1.2552" arrival="405.00">
        <route edges="E_in S_out"/>
    </vehicle>

    <vehicle id="flow_31_increasing_300_W_right.1" type="moto" depart="371.00" departLane="0" departPos="3.1111" departSpeed="8.439" speedFactor="1.0047" arrival="407.00">
        <route edges="W_in S_out"/>
    </vehicle>

    <vehicle id="flow_25_increasing_300_E_straight.3" type="moto" depart="384.00" departLane="0" departPos="144.3932" departSpeed="2.9366" speedFactor="0.9584" arrival="407.00">
        <route edges="E_in W_out"/>
    </vehicle>

    <vehicle id="flow_29_increasing_300_W_straight.3" type="moto" depart="390.00" departLane="0" departPos="154.6775" departSpeed="4.911" speedFactor="0.9282" arrival="411.00">
        <route edges="W_in E_out"/>
    </vehicle>

    <vehicle id="flow_30_increasing_300_W_left.1" type="moto" depart="376.00" departLane="1" departPos="133.5978" departSpeed="8.201" speedFactor="0.8642" arrival="413.00">
        <route edges="W_in N_out"/>
    </vehicle>

    <vehicle id="flow_21_increasing_300_S_straight.3" type="bus" depart="390.00" departLane="1" departPos="49.5467" departSpeed="8.1349" speedFactor="0.9819" arrival="424.00">
        <route edges="W_in W_out"/>
    </vehicle>

    <vehicle id="flow_19_increasing_300_N_right.1" type="car" depart="374.00" departLane="0" departPos="10.777" departSpeed="2.2587" speedFactor="1.1290" arrival="429.00">
        <route edges="N_in W_out"/>
    </vehicle>

    <vehicle id="flow_17_increasing_300_N_straight.3" type="moto" depart="391.00" departLane="1" departPos="97.1832" departSpeed="4.1387" speedFactor="1.0856" arrival="430.00">
        <route edges="N_in S_out"/>
    </vehicle>

    <vehicle id="flow_21_increasing_300_S_straight.4" type="moto" depart="419.00" departLane="1" departPos="80.1718" departSpeed="13.3927" speedFactor="1.2148" arrival="451.00">
        <route edges="W_in W_out"/>
    </vehicle>

    <vehicle id="flow_29_increasing_300_W_straight.4" type="bus" depart="420.00" departLane="0" departPos="11.4261" departSpeed="12.9425" speedFactor="0.9554" arrival="455.00">
        <route edges="W_in E_out"/>
    </vehicle>

    <vehicle id="flow_25_increasing_300_E_straight.4" type="moto" depart="411.00" departLane="1" departPos="15.5808" departSpeed="1.0546" speedFactor="0.9059" arrival="456.00">
        <route edges="E_in W_out"/>
    </vehicle>

    <vehicle id="flow_27_increasing_300_E_right.2" type="car" depart="438.00" departLane="1" departPos="161.9597" departSpeed="4.9671" speedFactor="0.9957" arrival="459.00">
        <route edges="E_in N_out"/>
    </vehicle>

    <vehicle id="flow_31_increasing_300_W_right.2" type="moto" depart="441.00" departLane="0" departPos="184.0677" departSpeed="9.9551" speedFactor="0.7657" arrival="464.00">
        <route edges="W_in S_out"/>
    </vehicle>

    <vehicle id="flow_23_increasing_300_S_right.2" type="moto" depart="446.00" departLane="0" departPos="184.144" departSpeed="0.6384" speedFactor="0.8756" arrival="468.00">
        <route edges="S_in E_out"/>
    </vehicle>

    <vehicle id="flow_17_increasing_300_N_straight.4" type="moto" depart="421.00" departLane="0" departPos="22.6696" departSpeed="6.5759" speedFactor="0.8917" arrival="469.00">
        <route edges="N_in S_out"/>
    </vehicle>

    <vehicle id="flow_19_increasing_300_N_right.2" type="moto" depart="448.00" departLane="1" departPos="127.7831" departSpeed="9.6239" speedFactor="1.0747" arrival="469.00">
        <route edges="N_in W_out"/>
    </vehicle>

    <vehicle id="flow_18_increasing_300_N_left.2" type="moto" depart="444.00" departLane="0" departPos="27.7577" departSpeed="13.5225" speedFactor="1.1530" arrival="471.00">
        <route edges="N_in E_out"/>
    </vehicle>

    <vehicle id="flow_17_increasing_300_N_straight.5" type="bus" depart="451.00" departLane="1" departPos="188.0912" departSpeed="5.5362" speedFactor="0.9363" arrival="471.00">
        <route edges="N_in S_out"/>
    </vehicle>

    <vehicle id="flow_32_increasing_300_W_uturn.1" type="moto" depart="442.00" departLane="0" departPos="120.4896" departSpeed="13.6977" speedFactor="1.1523" arrival="479.00">
        <route edges="W_in W_out"/>
    </vehicle>

    <vehicle id="flow_25_increasing_300_E_straight.5" type="moto" depart="439.00" departLane="0" departPos="44.9537" departSpeed="5.1033" speedFactor="0.8543" arrival="483.00">
        <route edges="E_in W_out"/>
    </vehicle>

    <vehicle id="flow_21_increasing_300_S_straight.5" type="moto" depart="449.00" departLane="0" departPos="39.6761" departSpeed="6.9595" speedFactor="0.9471" arrival="483.00">
        <route edges="W_in W_out"/>
    </vehicle>

    <vehicle id="flow_29_increasing_300_W_straight.5" type="bus" depart="450.00" departLane="0" departPos="103.1972" departSpeed="7.3707" speedFactor="1.0217" arrival="484.00">
        <route edges="W_in E_out"/>
    </vehicle>

    <vehicle id="flow_28_increasing_300_E_uturn.1" type="truck" depart="443.00" departLane="1" departPos="138.898" departSpeed="10.6751" speedFactor="0.8815" arrival="485.00">
        <route edges="E_in E_out"/>
    </vehicle>

    <vehicle id="flow_30_increasing_300_W_left.2" type="truck" depart="452.00" departLane="1" departPos="22.6964" departSpeed="3.6615" speedFactor="1.0167" arrival="487.00">
        <route edges="W_in N_out"/>
    </vehicle>

    <vehicle id="flow_24_increasing_300_S_uturn.1" type="moto" depart="444.00" departLane="0" departPos="7.5649" departSpeed="9.4987" speedFactor="0.8416" arrival="488.00">
        <route edges="W_in S_out"/>
    </vehicle>

    <vehicle id="flow_26_increasing_300_E_left.2" type="truck" depart="450.00" departLane="1" departPos="80.4314" departSpeed="10.9607" speedFactor="0.9700" arrival="489.00">
        <route edges="E_in S_out"/>
    </vehicle>

    <vehicle id="flow_22_increasing_300_S_left.2" type="moto" depart="444.00" departLane="1" departPos="22.618" departSpeed="0.1951" speedFactor="0.9806" arrival="493.00">
        <route edges="S_in W_out"/>
    </vehicle>

    <vehicle id="flow_20_increasing_300_N_uturn.1" type="moto" depart="443.00" departLane="1" departPos="0.9771" departSpeed="8.2733" speedFactor="0.9662" arrival="494.00">
        <route edges="N_in N_out"/>
    </vehicle>

    <vehicle id="flow_17_increasing_300_N_straight.6" type="car" depart="481.00" departLane="1" departPos="46.7196" departSpeed="2.4916" speedFactor="0.9418" arrival="512.00">
        <route edges="N_in S_out"/>
    </vehicle>

    <vehicle id="flow_29_increasing_300_W_straight.6" type="moto" depart="480.00" departLane="1" departPos="163.2859" departSpeed="10.3379" speedFactor="0.9174" arrival="517.00">
        <route edges="W_in E_out"/>
    </vehicle>
