<?xml version="1.0" encoding="UTF-8"?>

<!-- generated on 2025-12-09 23:47:32 by Eclipse SUMO sumo Version 1.18.0
<configuration xmlns:xsi="http://www.w3.org/2001/XMLSchema-instance" xsi:noNamespaceSchemaLocation="http://sumo.dlr.de/xsd/sumoConfiguration.xsd">

    <input>
        <net-file value="nets/120p4k/net.net.xml"/>
        <route-files value="nets/120p4k/route_temp_784_139142733854512_59322201.rou.xml"/>
    </input>

    <output>
        <summary-output value="result_ddqn_1.5_0.1/summary_ep_8.xml"/>
        <tripinfo-output value="result_ddqn_1.5_0.1/tripinfo_ep_8.xml"/>
        <vehroute-output value="result_ddqn_1.5_0.1/vehroute_ep_8.xml"/>
    </output>

    <time>
        <begin value="0"/>
    </time>

    <report>
        <verbose value="true"/>
        <no-warnings value="true"/>
        <no-step-log value="true"/>
    </report>

    <traci_server>
        <remote-port value="53955"/>
    </traci_server>

    <gui_only>
        <gui-settings-file value="nets/120p4k/gui-settings.xml"/>
        <quit-on-end value="true"/>
    </gui_only>

</configuration>
-->

<routes xmlns:xsi="http://www.w3.org/2001/XMLSchema-instance" xsi:noNamespaceSchemaLocation="http://sumo.dlr.de/xsd/routes_file.xsd">
    <vehicle id="flow_3_increasing_0_N_right.0" type="moto" depart="0.00" departLane="0" departPos="103.3842" departSpeed="3.8146" speedFactor="1.1088" arrival="24.00">
        <route edges="N_in W_out"/>
    </vehicle>

    <vehicle id="flow_5_increasing_0_S_straight.0" type="moto" depart="0.00" departLane="1" departPos="107.3659" departSpeed="7.2113" speedFactor="1.1475" arrival="25.00">
        <route edges="S_in N_out"/>
    </vehicle>

    <vehicle id="flow_6_increasing_0_S_left.0" type="moto" depart="0.00" departLane="1" departPos="166.0107" departSpeed="0.7376" speedFactor="0.8806" arrival="25.00">
        <route edges="S_in W_out"/>
    </vehicle>

    <vehicle id="flow_8_increasing_0_S_uturn.0" type="moto" depart="0.00" departLane="0" departPos="120.1072" departSpeed="4.4837" speedFactor="1.0505" arrival="25.00">
        <route edges="S_in S_out"/>
    </vehicle>

    <vehicle id="flow_4_increasing_0_N_uturn.0" type="moto" depart="0.00" departLane="1" departPos="127.6015" departSpeed="0.0761" speedFactor="0.9074" arrival="30.00">
        <route edges="N_in S_out"/>
    </vehicle>

    <vehicle id="flow_11_increasing_0_E_right.0" type="bus" depart="0.00" departLane="1" departPos="144.9496" departSpeed="4.0187" speedFactor="0.9581" arrival="35.00">
        <route edges="N_in E_out"/>
    </vehicle>

    <vehicle id="flow_16_increasing_0_W_uturn.0" type="moto" depart="0.00" departLane="0" departPos="135.6701" departSpeed="9.6426" speedFactor="1.0383" arrival="36.00">
        <route edges="W_in W_out"/>
    </vehicle>

    <vehicle id="flow_9_increasing_0_E_straight.0" type="car" depart="0.00" departLane="0" departPos="168.2937" departSpeed="10.7269" speedFactor="0.9362" arrival="37.00">
        <route edges="E_in W_out"/>
    </vehicle>

    <vehicle id="flow_14_increasing_0_W_left.0" type="moto" depart="0.00" departLane="1" departPos="42.3057" departSpeed="3.7077" speedFactor="1.0101" arrival="38.00">
        <route edges="W_in N_out"/>
    </vehicle>

    <vehicle id="flow_15_increasing_0_W_right.0" type="moto" depart="0.00" departLane="1" departPos="153.8984" departSpeed="6.7313" speedFactor="0.8472" arrival="38.00">
        <route edges="W_in S_out"/>
    </vehicle>

    <vehicle id="flow_13_increasing_0_W_straight.0" type="bus" depart="0.00" departLane="0" departPos="77.991" departSpeed="3.9683" speedFactor="0.8617" arrival="44.00">
        <route edges="W_in E_out"/>
    </vehicle>

    <vehicle id="flow_7_increasing_0_S_right.0" type="bus" depart="0.00" departLane="0" departPos="8.759" departSpeed="8.4712" speedFactor="0.8915" arrival="45.00">
        <route edges="W_in W_out"/>
    </vehicle>

    <vehicle id="flow_10_increasing_0_E_left.0" type="car" depart="0.00" departLane="0" departPos="44.8816" departSpeed="8.1909" speedFactor="1.0826" arrival="45.00">
        <route edges="E_in S_out"/>
    </vehicle>

    <vehicle id="flow_2_increasing_0_N_left.0" type="moto" depart="0.00" departLane="1" departPos="8.2688" departSpeed="8.3291" speedFactor="1.0157" arrival="49.00">
        <route edges="N_in E_out"/>
    </vehicle>

    <vehicle id="flow_1_increasing_0_N_straight.0" type="truck" depart="0.00" departLane="0" departPos="8.6229" departSpeed="8.5053" speedFactor="0.8588" arrival="56.00">
        <route edges="N_in S_out"/>
    </vehicle>

    <vehicle id="flow_13_increasing_0_W_straight.1" type="moto" depart="41.00" departLane="1" departPos="181.05" departSpeed="2.6944" speedFactor="1.1853" arrival="59.00">
        <route edges="W_in E_out"/>
    </vehicle>

    <vehicle id="flow_9_increasing_0_E_straight.1" type="moto" depart="39.00" departLane="1" departPos="177.286" departSpeed="6.906" speedFactor="1.1582" arrival="60.00">
        <route edges="E_in W_out"/>
    </vehicle>

    <vehicle id="flow_12_increasing_0_E_uturn.0" type="moto" depart="0.00" departLane="0" departPos="5.6544" departSpeed="13.7593" speedFactor="1.0348" arrival="65.00">
        <route edges="E_in E_out"/>
    </vehicle>

    <vehicle id="flow_1_increasing_0_N_straight.1" type="moto" depart="42.00" departLane="1" departPos="28.7874" departSpeed="10.2227" speedFactor="1.1462" arrival="74.00">
        <route edges="N_in S_out"/>
    </vehicle>

    <vehicle id="flow_5_increasing_0_S_straight.1" type="moto" depart="40.00" departLane="0" departPos="93.3916" departSpeed="3.7336" speedFactor="0.8727" arrival="77.00">
        <route edges="S_in N_out"/>
    </vehicle>

    <vehicle id="flow_5_increasing_0_S_straight.2" type="moto" depart="80.00" departLane="0" departPos="33.9342" departSpeed="0.8958" speedFactor="0.9623" arrival="112.00">
        <route edges="S_in N_out"/>
    </vehicle>

    <vehicle id="flow_1_increasing_0_N_straight.2" type="moto" depart="84.00" departLane="1" departPos="39.2795" departSpeed="7.315" speedFactor="0.9279" arrival="114.00">
        <route edges="N_in S_out"/>
    </vehicle>

    <vehicle id="flow_9_increasing_0_E_straight.2" type="moto" depart="77.00" departLane="1" departPos="103.6674" departSpeed="3.8519" speedFactor="0.9938" arrival="124.00">
        <route edges="E_in W_out"/>
    </vehicle>

    <vehicle id="flow_15_increasing_0_W_right.1" type="moto" depart="99.00" departLane="0" departPos="80.2425" departSpeed="9.7779" speedFactor="1.0365" arrival="127.00">
        <route edges="W_in S_out"/>
    </vehicle>

    <vehicle id="flow_14_increasing_0_W_left.1" type="moto" depart="100.00" departLane="1" departPos="79.0964" departSpeed="8.5001" speedFactor="1.0453" arrival="127.00">
        <route edges="W_in N_out"/>
    </vehicle>

    <vehicle id="flow_13_increasing_0_W_straight.2" type="truck" depart="81.00" departLane="1" departPos="64.277" departSpeed="4.213" speedFactor="0.9657" arrival="128.00">
        <route edges="W_in E_out"/>
    </vehicle>

    <vehicle id="flow_5_increasing_0_S_straight.3" type="moto" depart="120.00" departLane="0" departPos="184.1938" departSpeed="4.9526" speedFactor="1.0764" arrival="138.00">
        <route edges="S_in N_out"/>
    </vehicle>

    <vehicle id="flow_6_increasing_0_S_left.1" type="moto" depart="100.00" departLane="1" departPos="97.231" departSpeed="5.8444" speedFactor="1.0788" arrival="139.00">
        <route edges="S_in W_out"/>
    </vehicle>

    <vehicle id="flow_11_increasing_0_E_right.1" type="moto" depart="102.00" departLane="0" departPos="166.0021" departSpeed="1.2818" speedFactor="0.8806" arrival="140.00">
        <route edges="N_in E_out"/>
    </vehicle>

    <vehicle id="flow_2_increasing_0_N_left.1" type="moto" depart="98.00" departLane="0" departPos="15.1679" departSpeed="0.7311" speedFactor="1.1228" arrival="141.00">
        <route edges="N_in E_out"/>
    </vehicle>

    <vehicle id="flow_7_increasing_0_S_right.1" type="container" depart="98.00" departLane="0" departPos="54.9911" departSpeed="3.8367" speedFactor="0.7845" arrival="142.00">
        <route edges="W_in W_out"/>
    </vehicle>

    <vehicle id="flow_3_increasing_0_N_right.1" type="container" depart="105.00" departLane="0" departPos="93.4122" departSpeed="11.7583" speedFactor="0.9146" arrival="145.00">
        <route edges="N_in W_out"/>
    </vehicle>

    <vehicle id="flow_1_increasing_0_N_straight.3" type="moto" depart="126.00" departLane="1" departPos="88.4153" departSpeed="1.4924" speedFactor="1.0575" arrival="151.00">
        <route edges="N_in S_out"/>
    </vehicle>

    <vehicle id="flow_13_increasing_0_W_straight.3" type="moto" depart="122.00" departLane="0" departPos="65.0085" departSpeed="6.5773" speedFactor="1.2027" arrival="159.00">
        <route edges="W_in E_out"/>
    </vehicle>

    <vehicle id="flow_9_increasing_0_E_straight.3" type="truck" depart="116.00" departLane="0" departPos="86.4153" departSpeed="8.4123" speedFactor="0.8515" arrival="166.00">
        <route edges="E_in W_out"/>
    </vehicle>

    <vehicle id="flow_10_increasing_0_E_left.1" type="car" depart="102.00" departLane="0" departPos="4.5211" departSpeed="10.4631" speedFactor="0.7706" arrival="168.00">
        <route edges="E_in S_out"/>
    </vehicle>

    <vehicle id="flow_5_increasing_0_S_straight.4" type="container" depart="160.00" departLane="0" departPos="135.2371" departSpeed="1.6769" speedFactor="0.9706" arrival="189.00">
        <route edges="S_in N_out"/>
    </vehicle>

    <vehicle id="flow_9_increasing_0_E_straight.4" type="bus" depart="154.00" departLane="1" departPos="53.3168" departSpeed="10.3403" speedFactor="0.9525" arrival="201.00">
        <route edges="E_in W_out"/>
    </vehicle>

    <vehicle id="flow_13_increasing_0_W_straight.4" type="truck" depart="162.00" departLane="0" departPos="70.4575" departSpeed="10.655" speedFactor="0.8691" arrival="201.00">
        <route edges="W_in E_out"/>
    </vehicle>

    <vehicle id="flow_1_increasing_0_N_straight.4" type="car" depart="168.00" departLane="1" departPos="74.0695" departSpeed="0.5694" speedFactor="0.9617" arrival="210.00">
        <route edges="N_in S_out"/>
    </vehicle>

    <vehicle id="flow_4_increasing_0_N_uturn.1" type="moto" depart="192.00" departLane="1" departPos="160.3044" departSpeed="13.982" speedFactor="1.0283" arrival="210.00">
        <route edges="N_in S_out"/>
    </vehicle>

    <vehicle id="flow_9_increasing_0_E_straight.5" type="moto" depart="193.00" departLane="1" departPos="65.3279" departSpeed="12.5263" speedFactor="0.9964" arrival="221.00">
        <route edges="E_in W_out"/>
    </vehicle>

    <vehicle id="flow_15_increasing_0_W_right.2" type="moto" depart="197.00" departLane="0" departPos="155.6805" departSpeed="8.4812" speedFactor="0.9517" arrival="222.00">
        <route edges="W_in S_out"/>
    </vehicle>

    <vehicle id="flow_16_increasing_0_W_uturn.1" type="moto" depart="195.00" departLane="1" departPos="111.6918" departSpeed="6.8465" speedFactor="1.1432" arrival="223.00">
        <route edges="W_in W_out"/>
    </vehicle>

    <vehicle id="flow_13_increasing_0_W_straight.5" type="moto" depart="203.00" departLane="1" departPos="174.172" departSpeed="7.7408" speedFactor="1.0668" arrival="226.00">
        <route edges="W_in E_out"/>
    </vehicle>

    <vehicle id="flow_7_increasing_0_S_right.2" type="car" depart="196.00" departLane="1" departPos="19.5053" departSpeed="7.8658" speedFactor="0.9870" arrival="228.00">
        <route edges="W_in W_out"/>
    </vehicle>

    <vehicle id="flow_10_increasing_0_E_left.2" type="moto" depart="204.00" departLane="1" departPos="172.3747" departSpeed="7.7164" speedFactor="1.1413" arrival="229.00">
        <route edges="E_in S_out"/>
    </vehicle>

    <vehicle id="flow_5_increasing_0_S_straight.5" type="moto" depart="200.00" departLane="0" departPos="91.5182" departSpeed="11.5602" speedFactor="0.9374" arrival="236.00">
        <route edges="S_in N_out"/>
    </vehicle>

    <vehicle id="flow_6_increasing_0_S_left.2" type="moto" depart="200.00" departLane="1" departPos="65.5698" departSpeed="2.39" speedFactor="1.0265" arrival="236.00">
        <route edges="S_in W_out"/>
    </vehicle>

    <vehicle id="flow_3_increasing_0_N_right.2" type="moto" depart="209.00" departLane="1" departPos="92.4194" departSpeed="4.9333" speedFactor="0.9020" arrival="237.00">
        <route edges="N_in W_out"/>
    </vehicle>

    <vehicle id="flow_1_increasing_0_N_straight.5" type="moto" depart="210.00" departLane="0" departPos="87.7633" departSpeed="12.0348" speedFactor="1.1043" arrival="241.00">
        <route edges="N_in S_out"/>
    </vehicle>

    <vehicle id="flow_2_increasing_0_N_left.2" type="container" depart="196.00" departLane="1" departPos="129.0888" departSpeed="4.7391" speedFactor="0.8985" arrival="244.00">
        <route edges="N_in E_out"/>
    </vehicle>

    <vehicle id="flow_11_increasing_0_E_right.2" type="moto" depart="204.00" departLane="0" departPos="161.4056" departSpeed="1.6513" speedFactor="1.0390" arrival="246.00">
        <route edges="N_in E_out"/>
    </vehicle>

    <vehicle id="flow_8_increasing_0_S_uturn.1" type="car" depart="211.00" departLane="1" departPos="39.3431" departSpeed="4.1521" speedFactor="0.8975" arrival="246.00">
        <route edges="S_in S_out"/>
    </vehicle>

    <vehicle id="flow_12_increasing_0_E_uturn.1" type="moto" depart="198.00" departLane="1" departPos="2.773" departSpeed="6.7809" speedFactor="0.8882" arrival="250.00">
        <route edges="E_in E_out"/>
    </vehicle>

    <vehicle id="flow_14_increasing_0_W_left.2" type="car" depart="200.00" departLane="0" departPos="64.2471" departSpeed="6.0657" speedFactor="0.9279" arrival="250.00">
        <route edges="W_in N_out"/>
    </vehicle>

    <vehicle id="flow_9_increasing_0_E_straight.6" type="moto" depart="231.00" departLane="0" departPos="61.3216" departSpeed="6.3328" speedFactor="1.0203" arrival="257.00">
        <route edges="E_in W_out"/>
    </vehicle>

    <vehicle id="flow_5_increasing_0_S_straight.6" type="moto" depart="239.00" departLane="0" departPos="69.4902" departSpeed="6.7874" speedFactor="1.0983" arrival="270.00">
        <route edges="S_in N_out"/>
    </vehicle>

    <vehicle id="flow_13_increasing_0_W_straight.6" type="moto" depart="243.00" departLane="1" departPos="109.8853" departSpeed="2.1275" speedFactor="0.9711" arrival="285.00">
        <route edges="W_in E_out"/>
    </vehicle>

    <vehicle id="flow_1_increasing_0_N_straight.6" type="moto" depart="252.00" departLane="1" departPos="21.7404" departSpeed="10.7066" speedFactor="0.9756" arrival="298.00">
        <route edges="N_in S_out"/>
    </vehicle>

    <vehicle id="flow_5_increasing_0_S_straight.7" type="truck" depart="279.00" departLane="0" departPos="60.8307" departSpeed="11.5548" speedFactor="0.9040" arrival="307.00">
        <route edges="S_in N_out"/>
    </vehicle>

    <vehicle id="flow_2_increasing_0_N_left.3" type="moto" depart="293.00" departLane="0" departPos="178.3578" departSpeed="3.5215" speedFactor="1.0626" arrival="312.00">
        <route edges="N_in E_out"/>
    </vehicle>

    <vehicle id="flow_7_increasing_0_S_right.3" type="moto" depart="293.00" departLane="1" departPos="107.805" departSpeed="13.6307" speedFactor="1.0682" arrival="319.00">
        <route edges="W_in W_out"/>
    </vehicle>

    <vehicle id="flow_9_increasing_0_E_straight.7" type="moto" depart="270.00" departLane="0" departPos="43.1808" departSpeed="3.1678" speedFactor="1.0085" arrival="320.00">
        <route edges="E_in W_out"/>
    </vehicle>

    <vehicle id="flow_30_increasing_300_W_left.0" type="moto" depart="300.00" departLane="0" departPos="151.0147" departSpeed="9.5441" speedFactor="1.0281" arrival="322.00">
        <route edges="W_in N_out"/>
    </vehicle>

    <vehicle id="flow_15_increasing_0_W_right.3" type="moto" depart="295.00" departLane="1" departPos="126.2936" departSpeed="0.4274" speedFactor="0.8878" arrival="323.00">
        <route edges="W_in S_out"/>
    </vehicle>

    <vehicle id="flow_13_increasing_0_W_straight.7" type="moto" depart="283.00" departLane="1" departPos="88.3207" departSpeed="9.4641" speedFactor="0.8003" arrival="324.00">
        <route edges="W_in E_out"/>
    </vehicle>

    <vehicle id="flow_29_increasing_300_W_straight.0" type="car" depart="300.00" departLane="0" departPos="96.1141" departSpeed="8.3736" speedFactor="1.0323" arrival="325.00">
        <route edges="W_in E_out"/>
    </vehicle>

    <vehicle id="flow_14_increasing_0_W_left.3" type="moto" depart="299.00" departLane="0" departPos="81.5805" departSpeed="1.3203" speedFactor="1.1166" arrival="327.00">
        <route edges="W_in N_out"/>
    </vehicle>

    <vehicle id="flow_28_increasing_300_E_uturn.0" type="truck" depart="300.00" departLane="1" departPos="150.7313" departSpeed="3.5749" speedFactor="0.9032" arrival="329.00">
        <route edges="E_in E_out"/>
    </vehicle>

    <vehicle id="flow_27_increasing_300_E_right.0" type="truck" depart="300.00" departLane="0" departPos="38.2894" departSpeed="11.8898" speedFactor="0.9315" arrival="332.00">
        <route edges="E_in N_out"/>
    </vehicle>

    <vehicle id="flow_19_increasing_300_N_right.0" type="moto" depart="300.00" departLane="1" departPos="109.812" departSpeed="0.1864" speedFactor="1.2976" arrival="334.00">
        <route edges="N_in W_out"/>
    </vehicle>

    <vehicle id="flow_21_increasing_300_S_straight.0" type="car" depart="300.00" departLane="0" departPos="173.6034" departSpeed="3.1501" speedFactor="1.0212" arrival="334.00">
        <route edges="S_in N_out"/>
    </vehicle>

    <vehicle id="flow_18_increasing_300_N_left.0" type="car" depart="300.00" departLane="0" departPos="20.793" departSpeed="14.5386" speedFactor="1.0648" arrival="335.00">
        <route edges="N_in E_out"/>
    </vehicle>

    <vehicle id="flow_23_increasing_300_S_right.0" type="moto" depart="300.00" departLane="1" departPos="57.3268" departSpeed="5.9922" speedFactor="0.9645" arrival="335.00">
        <route edges="S_in E_out"/>
    </vehicle>

    <vehicle id="flow_20_increasing_300_N_uturn.0" type="moto" depart="300.00" departLane="0" departPos="178.6166" departSpeed="6.3647" speedFactor="0.8391" arrival="336.00">
        <route edges="N_in N_out"/>
    </vehicle>

    <vehicle id="flow_24_increasing_300_S_uturn.0" type="bus" depart="300.00" departLane="1" departPos="177.748" departSpeed="6.9503" speedFactor="1.0917" arrival="336.00">
        <route edges="S_in S_out"/>
    </vehicle>

    <vehicle id="flow_17_increasing_300_N_straight.0" type="truck" depart="300.00" departLane="0" departPos="114.6211" departSpeed="9.574" speedFactor="0.9320" arrival="337.00">
        <route edges="N_in S_out"/>
    </vehicle>

    <vehicle id="flow_22_increasing_300_S_left.0" type="moto" depart="300.00" departLane="0" departPos="65.7387" departSpeed="2.9154" speedFactor="1.1157" arrival="338.00">
        <route edges="S_in W_out"/>
    </vehicle>

    <vehicle id="flow_6_increasing_0_S_left.3" type="moto" depart="299.00" departLane="0" departPos="1.3904" departSpeed="7.2913" speedFactor="1.1705" arrival="340.00">
        <route edges="S_in W_out"/>
    </vehicle>

    <vehicle id="flow_1_increasing_0_N_straight.7" type="moto" depart="294.00" departLane="0" departPos="16.037" departSpeed="4.6699" speedFactor="0.8330" arrival="341.00">
        <route edges="N_in S_out"/>
    </vehicle>

    <vehicle id="flow_25_increasing_300_E_straight.0" type="moto" depart="300.00" departLane="1" departPos="40.1395" departSpeed="0.2127" speedFactor="1.1571" arrival="345.00">
        <route edges="E_in W_out"/>
    </vehicle>

    <vehicle id="flow_32_increasing_300_W_uturn.0" type="moto" depart="300.00" departLane="0" departPos="29.1188" departSpeed="4.2369" speedFactor="1.0387" arrival="345.00">
        <route edges="W_in W_out"/>
    </vehicle>

    <vehicle id="flow_26_increasing_300_E_left.0" type="moto" depart="300.00" departLane="1" departPos="5.9793" departSpeed="0.6737" speedFactor="0.9897" arrival="347.00">
        <route edges="E_in S_out"/>
    </vehicle>

    <vehicle id="flow_31_increasing_300_W_right.0" type="moto" depart="300.00" departLane="1" departPos="64.7255" departSpeed="4.6123" speedFactor="0.8620" arrival="348.00">
        <route edges="W_in S_out"/>
    </vehicle>

    <vehicle id="flow_25_increasing_300_E_straight.1" type="moto" depart="328.00" departLane="1" departPos="123.8246" departSpeed="4.4525" speedFactor="1.0039" arrival="351.00">
        <route edges="E_in W_out"/>
    </vehicle>

    <vehicle id="flow_29_increasing_300_W_straight.1" type="truck" depart="330.00" departLane="1" departPos="173.8291" departSpeed="0.6963" speedFactor="1.0325" arrival="353.00">
        <route edges="W_in E_out"/>
    </vehicle>

    <vehicle id="flow_21_increasing_300_S_straight.1" type="moto" depart="330.00" departLane="0" departPos="169.4272" departSpeed="11.2239" speedFactor="1.1421" arrival="358.00">
        <route edges="S_in N_out"/>
    </vehicle>

    <vehicle id="flow_17_increasing_300_N_straight.1" type="moto" depart="331.00" departLane="1" departPos="67.694" departSpeed="0.1602" speedFactor="1.0387" arrival="358.00">
        <route edges="N_in S_out"/>
    </vehicle>

    <vehicle id="flow_25_increasing_300_E_straight.2" type="truck" depart="356.00" departLane="1" departPos="140.3456" departSpeed="8.8216" speedFactor="0.8196" arrival="380.00">
        <route edges="E_in W_out"/>
    </vehicle>

    <vehicle id="flow_17_increasing_300_N_straight.2" type="moto" depart="361.00" departLane="0" departPos="123.2337" departSpeed="11.8848" speedFactor="1.0140" arrival="383.00">
        <route edges="N_in S_out"/>
    </vehicle>

    <vehicle id="flow_21_increasing_300_S_straight.2" type="moto" depart="360.00" departLane="0" departPos="109.2982" departSpeed="0.3866" speedFactor="1.0448" arrival="384.00">
        <route edges="S_in N_out"/>
    </vehicle>

    <vehicle id="flow_22_increasing_300_S_left.1" type="moto" depart="372.00" departLane="0" departPos="184.7562" departSpeed="4.6714" speedFactor="1.1365" arrival="390.00">
        <route edges="S_in W_out"/>
    </vehicle>

    <vehicle id="flow_18_increasing_300_N_left.1" type="moto" depart="372.00" departLane="0" departPos="131.4461" departSpeed="14.1894" speedFactor="1.0699" arrival="393.00">
        <route edges="N_in E_out"/>
    </vehicle>

    <vehicle id="flow_27_increasing_300_E_right.1" type="car" depart="369.00" departLane="1" departPos="169.9316" departSpeed="3.1927" speedFactor="0.9547" arrival="398.00">
        <route edges="E_in N_out"/>
    </vehicle>

    <vehicle id="flow_30_increasing_300_W_left.1" type="moto" depart="376.00" departLane="1" departPos="162.1669" departSpeed="11.8779" speedFactor="0.8642" arrival="400.00">
        <route edges="W_in N_out"/>
    </vehicle>

    <vehicle id="flow_31_increasing_300_W_right.1" type="moto" depart="371.00" departLane="0" departPos="57.4616" departSpeed="5.6812" speedFactor="1.0047" arrival="401.00">
        <route edges="W_in S_out"/>
    </vehicle>

    <vehicle id="flow_29_increasing_300_W_straight.2" type="truck" depart="360.00" departLane="0" departPos="34.8311" departSpeed="5.395" speedFactor="0.9784" arrival="402.00">
        <route edges="W_in E_out"/>
    </vehicle>

    <vehicle id="flow_26_increasing_300_E_left.1" type="moto" depart="375.00" departLane="1" departPos="66.1547" departSpeed="13.6378" speedFactor="1.2552" arrival="403.00">
        <route edges="E_in S_out"/>
    </vehicle>

    <vehicle id="flow_17_increasing_300_N_straight.3" type="moto" depart="391.00" departLane="1" departPos="170.5857" departSpeed="10.8378" speedFactor="1.0856" arrival="408.00">
        <route edges="N_in S_out"/>
    </vehicle>

    <vehicle id="flow_19_increasing_300_N_right.1" type="car" depart="374.00" departLane="1" departPos="60.9644" departSpeed="6.7127" speedFactor="1.1290" arrival="409.00">
        <route edges="N_in W_out"/>
    </vehicle>

    <vehicle id="flow_23_increasing_300_S_right.1" type="car" depart="373.00" departLane="0" departPos="114.5714" departSpeed="11.139" speedFactor="1.0144" arrival="411.00">
        <route edges="S_in E_out"/>
    </vehicle>

    <vehicle id="flow_21_increasing_300_S_straight.3" type="bus" depart="390.00" departLane="1" departPos="102.4537" departSpeed="0.5883" speedFactor="0.9819" arrival="419.00">
        <route edges="S_in N_out"/>
    </vehicle>

    <vehicle id="flow_25_increasing_300_E_straight.3" type="moto" depart="384.00" departLane="1" departPos="11.9624" departSpeed="0.7572" speedFactor="0.9584" arrival="425.00">
        <route edges="E_in W_out"/>
    </vehicle>

    <vehicle id="flow_29_increasing_300_W_straight.3" type="moto" depart="390.00" departLane="0" departPos="169.1917" departSpeed="9.0911" speedFactor="0.9282" arrival="425.00">
        <route edges="W_in E_out"/>
    </vehicle>

    <vehicle id="flow_25_increasing_300_E_straight.4" type="moto" depart="411.00" departLane="0" departPos="128.7404" departSpeed="3.2906" speedFactor="0.9059" arrival="435.00">
        <route edges="E_in W_out"/>
    </vehicle>

    <vehicle id="flow_21_increasing_300_S_straight.4" type="moto" depart="419.00" departLane="0" departPos="28.3376" departSpeed="13.053" speedFactor="1.2148" arrival="444.00">
        <route edges="S_in N_out"/>
    </vehicle>

    <vehicle id="flow_17_increasing_300_N_straight.4" type="moto" depart="421.00" departLane="1" departPos="38.4375" departSpeed="1.0186" speedFactor="0.8917" arrival="454.00">
        <route edges="N_in S_out"/>
    </vehicle>

    <vehicle id="flow_27_increasing_300_E_right.2" type="car" depart="438.00" departLane="0" departPos="170.7684" departSpeed="5.8523" speedFactor="0.9957" arrival="458.00">
        <route edges="E_in N_out"/>
    </vehicle>

    <vehicle id="flow_25_increasing_300_E_straight.5" type="moto" depart="439.00" departLane="1" departPos="167.1176" departSpeed="0.7156" speedFactor="0.8543" arrival="463.00">
        <route edges="E_in W_out"/>
    </vehicle>

    <vehicle id="flow_29_increasing_300_W_straight.4" type="bus" depart="420.00" departLane="1" departPos="21.3277" departSpeed="6.807" speedFactor="0.9554" arrival="465.00">
        <route edges="W_in E_out"/>
    </vehicle>

    <vehicle id="flow_32_increasing_300_W_uturn.1" type="moto" depart="442.00" departLane="1" departPos="50.8725" departSpeed="13.6675" speedFactor="1.1523" arrival="469.00">
        <route edges="W_in W_out"/>
    </vehicle>

    <vehicle id="flow_28_increasing_300_E_uturn.1" type="truck" depart="443.00" departLane="0" departPos="114.397" departSpeed="11.8953" speedFactor="0.8815" arrival="473.00">
        <route edges="E_in E_out"/>
    </vehicle>

    <vehicle id="flow_31_increasing_300_W_right.2" type="moto" depart="441.00" departLane="0" departPos="98.6919" departSpeed="1.2726" speedFactor="0.7657" arrival="475.00">
        <route edges="W_in S_out"/>
    </vehicle>

    <vehicle id="flow_29_increasing_300_W_straight.5" type="bus" depart="450.00" departLane="1" departPos="127.7831" departSpeed="9.1493" speedFactor="1.0217" arrival="475.00">
        <route edges="W_in E_out"/>
    </vehicle>

    <vehicle id="flow_30_increasing_300_W_left.2" type="truck" depart="452.00" departLane="1" departPos="80.4314" departSpeed="11.4884" speedFactor="1.0167" arrival="479.00">
        <route edges="W_in N_out"/>
    </vehicle>

    <vehicle id="flow_26_increasing_300_E_left.2" type="truck" depart="450.00" departLane="0" departPos="184.144" departSpeed="0.7072" speedFactor="0.9700" arrival="481.00">
        <route edges="E_in S_out"/>
    </vehicle>

    <vehicle id="flow_17_increasing_300_N_straight.5" type="bus" depart="451.00" departLane="0" departPos="39.6761" departSpeed="6.8801" speedFactor="0.9363" arrival="482.00">
        <route edges="N_in S_out"/>
    </vehicle>

    <vehicle id="flow_19_increasing_300_N_right.2" type="moto" depart="448.00" departLane="1" departPos="22.618" departSpeed="0.2138" speedFactor="1.0747" arrival="484.00">
        <route edges="N_in W_out"/>
    </vehicle>

    <vehicle id="flow_22_increasing_300_S_left.2" type="moto" depart="444.00" departLane="1" departPos="0.9771" departSpeed="8.3966" speedFactor="0.9806" arrival="485.00">
        <route edges="S_in W_out"/>
    </vehicle>

    <vehicle id="flow_23_increasing_300_S_right.2" type="moto" depart="446.00" departLane="0" departPos="27.7577" departSpeed="10.2862" speedFactor="0.8756" arrival="485.00">
        <route edges="S_in E_out"/>
    </vehicle>

    <vehicle id="flow_21_increasing_300_S_straight.5" type="moto" depart="449.00" departLane="0" departPos="7.5649" departSpeed="10.6894" speedFactor="0.9471" arrival="485.00">
        <route edges="S_in N_out"/>
    </vehicle>

    <vehicle id="flow_20_increasing_300_N_uturn.1" type="moto" depart="443.00" departLane="1" departPos="43.1771" departSpeed="3.1843" speedFactor="0.9662" arrival="486.00">
        <route edges="N_in N_out"/>
    </vehicle>

    <vehicle id="flow_18_increasing_300_N_left.2" type="moto" depart="444.00" departLane="1" departPos="120.4896" departSpeed="15.8451" speedFactor="1.1530" arrival="486.00">
        <route edges="N_in E_out"/>
    </vehicle>

    <vehicle id="flow_24_increasing_300_S_uturn.1" type="moto" depart="444.00" departLane="1" departPos="138.898" departSpeed="10.1919" speedFactor="0.8416" arrival="487.00">
        <route edges="S_in S_out"/>
    </vehicle>

    <vehicle id="flow_25_increasing_300_E_straight.6" type="truck" depart="467.00" departLane="0" departPos="99.1978" departSpeed="6.6616" speedFactor="0.9234" arrival="498.00">
        <route edges="E_in W_out"/>
    </vehicle>

    <vehicle id="flow_29_increasing_300_W_straight.6" type="moto" depart="480.00" departLane="0" departPos="15.6422" departSpeed="12.6504" speedFactor="0.9174" arrival="512.00">
        <route edges="W_in E_out"/>
    </vehicle>
