<?xml version="1.0" encoding="UTF-8"?>

<!-- generated on 2025-12-09 23:44:35 by Eclipse SUMO sumo Version 1.18.0
<configuration xmlns:xsi="http://www.w3.org/2001/XMLSchema-instance" xsi:noNamespaceSchemaLocation="http://sumo.dlr.de/xsd/sumoConfiguration.xsd">

    <input>
        <net-file value="nets/120p4k/net.net.xml"/>
        <route-files value="nets/120p4k/route_temp_784_139142733854512_59322201.rou.xml"/>
    </input>

    <output>
        <summary-output value="result_ddqn_1.5_0.1/summary_ep_5.xml"/>
        <tripinfo-output value="result_ddqn_1.5_0.1/tripinfo_ep_5.xml"/>
        <vehroute-output value="result_ddqn_1.5_0.1/vehroute_ep_5.xml"/>
    </output>

    <time>
        <begin value="0"/>
    </time>

    <report>
        <verbose value="true"/>
        <no-warnings value="true"/>
        <no-step-log value="true"/>
    </report>

    <traci_server>
        <remote-port value="58291"/>
    </traci_server>

    <gui_only>
        <gui-settings-file value="nets/120p4k/gui-settings.xml"/>
        <quit-on-end value="true"/>
    </gui_only>

</configuration>
-->

<routes xmlns:xsi="http://www.w3.org/2001/XMLSchema-instance" xsi:noNamespaceSchemaLocation="http://sumo.dlr.de/xsd/routes_file.xsd">
    <vehicle id="flow_8_increasing_0_S_uturn.0" type="moto" depart="0.00" departLane="0" departPos="178.0418" departSpeed="8.0286" speedFactor="1.0505" arrival="19.00">
        <route edges="S_in S_out"/>
    </vehicle>

    <vehicle id="flow_5_increasing_0_S_straight.0" type="moto" depart="0.00" departLane="1" departPos="107.3659" departSpeed="7.2113" speedFactor="1.1475" arrival="21.00">
        <route edges="S_in N_out"/>
    </vehicle>

    <vehicle id="flow_3_increasing_0_N_right.0" type="moto" depart="0.00" departLane="0" departPos="103.3842" departSpeed="3.8146" speedFactor="1.1088" arrival="24.00">
        <route edges="N_in W_out"/>
    </vehicle>

    <vehicle id="flow_6_increasing_0_S_left.0" type="moto" depart="0.00" departLane="1" departPos="166.0107" departSpeed="0.7376" speedFactor="0.8806" arrival="25.00">
        <route edges="S_in W_out"/>
    </vehicle>

    <vehicle id="flow_4_increasing_0_N_uturn.0" type="moto" depart="0.00" departLane="1" departPos="127.6015" departSpeed="0.0761" speedFactor="0.9074" arrival="29.00">
        <route edges="N_in N_out"/>
    </vehicle>

    <vehicle id="flow_16_increasing_0_W_uturn.0" type="moto" depart="0.00" departLane="0" departPos="126.6766" departSpeed="11.7148" speedFactor="1.0383" arrival="35.00">
        <route edges="W_in W_out"/>
    </vehicle>

    <vehicle id="flow_7_increasing_0_S_right.0" type="bus" depart="0.00" departLane="0" departPos="97.2584" departSpeed="1.2248" speedFactor="0.8915" arrival="37.00">
        <route edges="N_in N_out"/>
    </vehicle>

    <vehicle id="flow_11_increasing_0_E_right.0" type="bus" depart="0.00" departLane="1" departPos="30.1666" departSpeed="10.1813" speedFactor="0.9581" arrival="39.00">
        <route edges="E_in N_out"/>
    </vehicle>

    <vehicle id="flow_12_increasing_0_E_uturn.0" type="moto" depart="0.00" departLane="1" departPos="129.8894" departSpeed="0.429" speedFactor="1.0348" arrival="39.00">
        <route edges="E_in E_out"/>
    </vehicle>

    <vehicle id="flow_14_increasing_0_W_left.0" type="moto" depart="0.00" departLane="1" departPos="50.0682" departSpeed="13.5426" speedFactor="1.0101" arrival="39.00">
        <route edges="W_in N_out"/>
    </vehicle>

    <vehicle id="flow_15_increasing_0_W_right.0" type="moto" depart="0.00" departLane="1" departPos="108.377" departSpeed="1.9778" speedFactor="0.8472" arrival="39.00">
        <route edges="W_in S_out"/>
    </vehicle>

    <vehicle id="flow_10_increasing_0_E_left.0" type="car" depart="0.00" departLane="0" departPos="6.1463" departSpeed="3.5622" speedFactor="1.0826" arrival="41.00">
        <route edges="E_in S_out"/>
    </vehicle>

    <vehicle id="flow_13_increasing_0_W_straight.0" type="bus" depart="0.00" departLane="0" departPos="23.7725" departSpeed="1.5496" speedFactor="0.8617" arrival="41.00">
        <route edges="W_in E_out"/>
    </vehicle>

    <vehicle id="flow_9_increasing_0_E_straight.0" type="car" depart="0.00" departLane="1" departPos="75.1912" departSpeed="11.5508" speedFactor="0.9362" arrival="42.00">
        <route edges="E_in W_out"/>
    </vehicle>

    <vehicle id="flow_2_increasing_0_N_left.0" type="moto" depart="0.00" departLane="1" departPos="8.2688" departSpeed="8.3291" speedFactor="1.0157" arrival="49.00">
        <route edges="N_in E_out"/>
    </vehicle>

    <vehicle id="flow_1_increasing_0_N_straight.0" type="truck" depart="0.00" departLane="0" departPos="8.6229" departSpeed="8.5053" speedFactor="0.8588" arrival="55.00">
        <route edges="N_in S_out"/>
    </vehicle>

    <vehicle id="flow_9_increasing_0_E_straight.1" type="moto" depart="39.00" departLane="0" departPos="131.129" departSpeed="9.5396" speedFactor="1.1582" arrival="58.00">
        <route edges="E_in W_out"/>
    </vehicle>

    <vehicle id="flow_13_increasing_0_W_straight.1" type="moto" depart="41.00" departLane="1" departPos="31.9285" departSpeed="9.2811" speedFactor="1.1853" arrival="66.00">
        <route edges="W_in E_out"/>
    </vehicle>

    <vehicle id="flow_1_increasing_0_N_straight.1" type="moto" depart="42.00" departLane="1" departPos="121.6549" departSpeed="2.9213" speedFactor="1.1462" arrival="84.00">
        <route edges="N_in S_out"/>
    </vehicle>

    <vehicle id="flow_5_increasing_0_S_straight.1" type="moto" depart="40.00" departLane="1" departPos="58.3562" departSpeed="11.6446" speedFactor="0.8727" arrival="87.00">
        <route edges="S_in N_out"/>
    </vehicle>

    <vehicle id="flow_9_increasing_0_E_straight.2" type="moto" depart="77.00" departLane="1" departPos="52.8684" departSpeed="0.3845" speedFactor="0.9938" arrival="107.00">
        <route edges="E_in W_out"/>
    </vehicle>

    <vehicle id="flow_13_increasing_0_W_straight.2" type="truck" depart="81.00" departLane="1" departPos="59.5081" departSpeed="13.3195" speedFactor="0.9657" arrival="108.00">
        <route edges="W_in E_out"/>
    </vehicle>

    <vehicle id="flow_5_increasing_0_S_straight.2" type="moto" depart="80.00" departLane="1" departPos="12.6982" departSpeed="12.4143" speedFactor="0.9623" arrival="122.00">
        <route edges="S_in N_out"/>
    </vehicle>

    <vehicle id="flow_1_increasing_0_N_straight.2" type="moto" depart="84.00" departLane="1" departPos="107.5311" departSpeed="1.1094" speedFactor="0.9279" arrival="123.00">
        <route edges="N_in S_out"/>
    </vehicle>

    <vehicle id="flow_6_increasing_0_S_left.1" type="moto" depart="100.00" departLane="0" departPos="73.8966" departSpeed="9.2239" speedFactor="1.0788" arrival="126.00">
        <route edges="S_in W_out"/>
    </vehicle>

    <vehicle id="flow_3_increasing_0_N_right.1" type="container" depart="105.00" departLane="1" departPos="175.3621" departSpeed="7.2456" speedFactor="0.9146" arrival="128.00">
        <route edges="N_in W_out"/>
    </vehicle>

    <vehicle id="flow_15_increasing_0_W_right.1" type="moto" depart="99.00" departLane="1" departPos="128.6773" departSpeed="3.0596" speedFactor="1.0365" arrival="133.00">
        <route edges="W_in S_out"/>
    </vehicle>

    <vehicle id="flow_14_increasing_0_W_left.1" type="moto" depart="100.00" departLane="1" departPos="110.9191" departSpeed="11.9947" speedFactor="1.0453" arrival="135.00">
        <route edges="W_in N_out"/>
    </vehicle>

    <vehicle id="flow_7_increasing_0_S_right.1" type="container" depart="98.00" departLane="1" departPos="66.71" departSpeed="7.8717" speedFactor="0.7845" arrival="136.00">
        <route edges="N_in N_out"/>
    </vehicle>

    <vehicle id="flow_10_increasing_0_E_left.1" type="car" depart="102.00" departLane="1" departPos="185.2056" departSpeed="3.9115" speedFactor="0.7706" arrival="139.00">
        <route edges="E_in S_out"/>
    </vehicle>

    <vehicle id="flow_11_increasing_0_E_right.1" type="moto" depart="102.00" departLane="0" departPos="19.8546" departSpeed="3.7056" speedFactor="0.8806" arrival="139.00">
        <route edges="E_in N_out"/>
    </vehicle>

    <vehicle id="flow_9_increasing_0_E_straight.3" type="truck" depart="116.00" departLane="0" departPos="134.7579" departSpeed="5.0315" speedFactor="0.8515" arrival="141.00">
        <route edges="E_in W_out"/>
    </vehicle>

    <vehicle id="flow_5_increasing_0_S_straight.3" type="moto" depart="120.00" departLane="1" departPos="108.7646" departSpeed="13.0742" speedFactor="1.0764" arrival="146.00">
        <route edges="S_in N_out"/>
    </vehicle>

    <vehicle id="flow_2_increasing_0_N_left.1" type="moto" depart="98.00" departLane="0" departPos="8.8817" departSpeed="2.8196" speedFactor="1.1228" arrival="149.00">
        <route edges="N_in E_out"/>
    </vehicle>

    <vehicle id="flow_1_increasing_0_N_straight.3" type="moto" depart="126.00" departLane="0" departPos="19.2493" departSpeed="10.2819" speedFactor="1.0575" arrival="154.00">
        <route edges="N_in S_out"/>
    </vehicle>

    <vehicle id="flow_13_increasing_0_W_straight.3" type="moto" depart="122.00" departLane="1" departPos="77.9408" departSpeed="4.7411" speedFactor="1.2027" arrival="159.00">
        <route edges="W_in E_out"/>
    </vehicle>

    <vehicle id="flow_5_increasing_0_S_straight.4" type="container" depart="160.00" departLane="1" departPos="23.5668" departSpeed="9.6088" speedFactor="0.9706" arrival="190.00">
        <route edges="S_in N_out"/>
    </vehicle>

    <vehicle id="flow_9_increasing_0_E_straight.4" type="bus" depart="154.00" departLane="0" departPos="148.0778" departSpeed="8.7623" speedFactor="0.9525" arrival="200.00">
        <route edges="E_in W_out"/>
    </vehicle>

    <vehicle id="flow_13_increasing_0_W_straight.4" type="truck" depart="162.00" departLane="0" departPos="167.2268" departSpeed="1.7052" speedFactor="0.8691" arrival="202.00">
        <route edges="W_in E_out"/>
    </vehicle>

    <vehicle id="flow_1_increasing_0_N_straight.4" type="car" depart="168.00" departLane="0" departPos="8.0759" departSpeed="6.4168" speedFactor="0.9617" arrival="210.00">
        <route edges="N_in S_out"/>
    </vehicle>

    <vehicle id="flow_4_increasing_0_N_uturn.1" type="moto" depart="192.00" departLane="0" departPos="185.4693" departSpeed="2.9627" speedFactor="1.0283" arrival="211.00">
        <route edges="N_in N_out"/>
    </vehicle>

    <vehicle id="flow_15_increasing_0_W_right.2" type="moto" depart="197.00" departLane="0" departPos="121.5569" departSpeed="11.3311" speedFactor="0.9517" arrival="221.00">
        <route edges="W_in S_out"/>
    </vehicle>

    <vehicle id="flow_16_increasing_0_W_uturn.1" type="moto" depart="195.00" departLane="0" departPos="81.6907" departSpeed="10.5402" speedFactor="1.1432" arrival="222.00">
        <route edges="W_in W_out"/>
    </vehicle>

    <vehicle id="flow_13_increasing_0_W_straight.5" type="moto" depart="203.00" departLane="1" departPos="174.172" departSpeed="0.0127" speedFactor="1.0668" arrival="222.00">
        <route edges="W_in E_out"/>
    </vehicle>

    <vehicle id="flow_9_increasing_0_E_straight.5" type="moto" depart="193.00" departLane="1" departPos="171.4793" departSpeed="2.1268" speedFactor="0.9964" arrival="223.00">
        <route edges="E_in W_out"/>
    </vehicle>

    <vehicle id="flow_11_increasing_0_E_right.2" type="moto" depart="204.00" departLane="1" departPos="155.3486" departSpeed="12.2945" speedFactor="1.0390" arrival="225.00">
        <route edges="E_in N_out"/>
    </vehicle>

    <vehicle id="flow_14_increasing_0_W_left.2" type="car" depart="200.00" departLane="1" departPos="89.1662" departSpeed="10.2919" speedFactor="0.9279" arrival="228.00">
        <route edges="W_in N_out"/>
    </vehicle>

    <vehicle id="flow_10_increasing_0_E_left.2" type="moto" depart="204.00" departLane="1" departPos="78.0885" departSpeed="7.7164" speedFactor="1.1413" arrival="228.00">
        <route edges="E_in S_out"/>
    </vehicle>

    <vehicle id="flow_12_increasing_0_E_uturn.1" type="moto" depart="198.00" departLane="0" departPos="104.1356" departSpeed="11.6643" speedFactor="0.8882" arrival="229.00">
        <route edges="E_in E_out"/>
    </vehicle>

    <vehicle id="flow_7_increasing_0_S_right.2" type="car" depart="196.00" departLane="1" departPos="108.7048" departSpeed="8.1312" speedFactor="0.9870" arrival="235.00">
        <route edges="N_in N_out"/>
    </vehicle>

    <vehicle id="flow_6_increasing_0_S_left.2" type="moto" depart="200.00" departLane="0" departPos="31.7588" departSpeed="12.8895" speedFactor="1.0265" arrival="235.00">
        <route edges="S_in W_out"/>
    </vehicle>

    <vehicle id="flow_5_increasing_0_S_straight.5" type="moto" depart="200.00" departLane="1" departPos="168.2148" departSpeed="12.7817" speedFactor="0.9374" arrival="236.00">
        <route edges="S_in N_out"/>
    </vehicle>

    <vehicle id="flow_3_increasing_0_N_right.2" type="moto" depart="209.00" departLane="0" departPos="92.4194" departSpeed="12.497" speedFactor="0.9020" arrival="237.00">
        <route edges="N_in W_out"/>
    </vehicle>

    <vehicle id="flow_1_increasing_0_N_straight.5" type="moto" depart="210.00" departLane="0" departPos="87.7633" departSpeed="12.0348" speedFactor="1.1043" arrival="239.00">
        <route edges="N_in S_out"/>
    </vehicle>

    <vehicle id="flow_2_increasing_0_N_left.2" type="container" depart="196.00" departLane="0" departPos="71.9448" departSpeed="3.463" speedFactor="0.8985" arrival="246.00">
        <route edges="N_in E_out"/>
    </vehicle>

    <vehicle id="flow_8_increasing_0_S_uturn.1" type="car" depart="211.00" departLane="1" departPos="39.3431" departSpeed="4.1521" speedFactor="0.8975" arrival="246.00">
        <route edges="S_in S_out"/>
    </vehicle>

    <vehicle id="flow_5_increasing_0_S_straight.6" type="moto" depart="239.00" departLane="0" departPos="69.4902" departSpeed="6.7874" speedFactor="1.0983" arrival="263.00">
        <route edges="S_in N_out"/>
    </vehicle>

    <vehicle id="flow_9_increasing_0_E_straight.6" type="moto" depart="231.00" departLane="0" departPos="61.3216" departSpeed="6.3328" speedFactor="1.0203" arrival="284.00">
        <route edges="E_in W_out"/>
    </vehicle>

    <vehicle id="flow_13_increasing_0_W_straight.6" type="moto" depart="243.00" departLane="1" departPos="109.8853" departSpeed="2.1275" speedFactor="0.9711" arrival="285.00">
        <route edges="W_in E_out"/>
    </vehicle>

    <vehicle id="flow_1_increasing_0_N_straight.6" type="moto" depart="252.00" departLane="1" departPos="21.7404" departSpeed="10.7066" speedFactor="0.9756" arrival="298.00">
        <route edges="N_in S_out"/>
    </vehicle>

    <vehicle id="flow_5_increasing_0_S_straight.7" type="truck" depart="279.00" departLane="0" departPos="60.8307" departSpeed="11.5548" speedFactor="0.9040" arrival="308.00">
        <route edges="S_in N_out"/>
    </vehicle>

    <vehicle id="flow_2_increasing_0_N_left.3" type="moto" depart="293.00" departLane="0" departPos="178.3578" departSpeed="3.5215" speedFactor="1.0626" arrival="312.00">
        <route edges="N_in E_out"/>
    </vehicle>

    <vehicle id="flow_25_increasing_300_E_straight.0" type="moto" depart="300.00" departLane="1" departPos="177.748" departSpeed="4.958" speedFactor="1.1571" arrival="317.00">
        <route edges="E_in W_out"/>
    </vehicle>

    <vehicle id="flow_9_increasing_0_E_straight.7" type="moto" depart="270.00" departLane="0" departPos="43.1808" departSpeed="3.1678" speedFactor="1.0085" arrival="320.00">
        <route edges="E_in W_out"/>
    </vehicle>

    <vehicle id="flow_15_increasing_0_W_right.3" type="moto" depart="295.00" departLane="1" departPos="142.1182" departSpeed="0.4274" speedFactor="0.8878" arrival="323.00">
        <route edges="W_in S_out"/>
    </vehicle>

    <vehicle id="flow_13_increasing_0_W_straight.7" type="moto" depart="283.00" departLane="1" departPos="88.3207" departSpeed="9.4641" speedFactor="0.8003" arrival="324.00">
        <route edges="W_in E_out"/>
    </vehicle>

    <vehicle id="flow_30_increasing_300_W_left.0" type="moto" depart="300.00" departLane="0" departPos="110.6444" departSpeed="7.7835" speedFactor="1.0281" arrival="324.00">
        <route edges="W_in N_out"/>
    </vehicle>

    <vehicle id="flow_14_increasing_0_W_left.3" type="moto" depart="299.00" departLane="1" departPos="111.5719" departSpeed="0.1138" speedFactor="1.1166" arrival="325.00">
        <route edges="W_in N_out"/>
    </vehicle>

    <vehicle id="flow_31_increasing_300_W_right.0" type="moto" depart="300.00" departLane="1" departPos="133.5146" departSpeed="5.7064" speedFactor="0.8620" arrival="327.00">
        <route edges="W_in S_out"/>
    </vehicle>

    <vehicle id="flow_32_increasing_300_W_uturn.0" type="moto" depart="300.00" departLane="0" departPos="72.9854" departSpeed="6.9158" speedFactor="1.0387" arrival="329.00">
        <route edges="W_in W_out"/>
    </vehicle>

    <vehicle id="flow_7_increasing_0_S_right.3" type="moto" depart="293.00" departLane="1" departPos="107.805" departSpeed="13.6307" speedFactor="1.0682" arrival="332.00">
        <route edges="N_in N_out"/>
    </vehicle>

    <vehicle id="flow_21_increasing_300_S_straight.0" type="car" depart="300.00" departLane="0" departPos="178.6166" departSpeed="7.7412" speedFactor="1.0212" arrival="333.00">
        <route edges="S_in N_out"/>
    </vehicle>

    <vehicle id="flow_23_increasing_300_S_right.0" type="moto" depart="300.00" departLane="0" departPos="50.1096" departSpeed="4.6484" speedFactor="0.9645" arrival="335.00">
        <route edges="S_in E_out"/>
    </vehicle>

    <vehicle id="flow_18_increasing_300_N_left.0" type="car" depart="300.00" departLane="0" departPos="36.1365" departSpeed="8.9477" speedFactor="1.0648" arrival="336.00">
        <route edges="N_in E_out"/>
    </vehicle>

    <vehicle id="flow_24_increasing_300_S_uturn.0" type="bus" depart="300.00" departLane="0" departPos="144.2877" departSpeed="4.5881" speedFactor="1.0917" arrival="336.00">
        <route edges="S_in S_out"/>
    </vehicle>

    <vehicle id="flow_17_increasing_300_N_straight.0" type="truck" depart="300.00" departLane="0" departPos="150.3232" departSpeed="5.5741" speedFactor="0.9320" arrival="337.00">
        <route edges="N_in S_out"/>
    </vehicle>

    <vehicle id="flow_20_increasing_300_N_uturn.0" type="moto" depart="300.00" departLane="1" departPos="109.812" departSpeed="0.1359" speedFactor="0.8391" arrival="337.00">
        <route edges="N_in N_out"/>
    </vehicle>

    <vehicle id="flow_6_increasing_0_S_left.3" type="moto" depart="299.00" departLane="1" departPos="22.6438" departSpeed="10.6577" speedFactor="1.1705" arrival="339.00">
        <route edges="S_in W_out"/>
    </vehicle>

    <vehicle id="flow_1_increasing_0_N_straight.7" type="moto" depart="294.00" departLane="0" departPos="16.037" departSpeed="4.6699" speedFactor="0.8330" arrival="341.00">
        <route edges="N_in S_out"/>
    </vehicle>

    <vehicle id="flow_22_increasing_300_S_left.0" type="moto" depart="300.00" departLane="0" departPos="43.7958" departSpeed="3.4416" speedFactor="1.1157" arrival="341.00">
        <route edges="S_in W_out"/>
    </vehicle>

    <vehicle id="flow_19_increasing_300_N_right.0" type="moto" depart="300.00" departLane="1" departPos="20.793" departSpeed="6.311" speedFactor="1.2976" arrival="344.00">
        <route edges="W_in N_out"/>
    </vehicle>

    <vehicle id="flow_29_increasing_300_W_straight.0" type="car" depart="300.00" departLane="1" departPos="7.4986" departSpeed="4.0858" speedFactor="1.0323" arrival="346.00">
        <route edges="W_in E_out"/>
    </vehicle>

    <vehicle id="flow_27_increasing_300_E_right.0" type="truck" depart="300.00" departLane="1" departPos="5.9793" departSpeed="0.6341" speedFactor="0.9315" arrival="349.00">
        <route edges="E_in N_out"/>
    </vehicle>

    <vehicle id="flow_28_increasing_300_E_uturn.0" type="truck" depart="300.00" departLane="0" departPos="38.2894" departSpeed="11.5285" speedFactor="0.9032" arrival="350.00">
        <route edges="E_in E_out"/>
    </vehicle>

    <vehicle id="flow_29_increasing_300_W_straight.1" type="truck" depart="330.00" departLane="1" departPos="188.5725" departSpeed="1.0265" speedFactor="1.0325" arrival="353.00">
        <route edges="W_in E_out"/>
    </vehicle>

    <vehicle id="flow_21_increasing_300_S_straight.1" type="moto" depart="330.00" departLane="1" departPos="60.4969" departSpeed="3.4287" speedFactor="1.1421" arrival="355.00">
        <route edges="S_in N_out"/>
    </vehicle>

    <vehicle id="flow_26_increasing_300_E_left.0" type="moto" depart="300.00" departLane="1" departPos="40.1395" departSpeed="0.1829" speedFactor="0.9897" arrival="356.00">
        <route edges="E_in S_out"/>
    </vehicle>

    <vehicle id="flow_17_increasing_300_N_straight.1" type="moto" depart="331.00" departLane="1" departPos="173.8291" departSpeed="9.464" speedFactor="1.0387" arrival="359.00">
        <route edges="N_in S_out"/>
    </vehicle>

    <vehicle id="flow_25_increasing_300_E_straight.1" type="moto" depart="328.00" departLane="1" departPos="55.6396" departSpeed="12.3883" speedFactor="1.0039" arrival="382.00">
        <route edges="E_in W_out"/>
    </vehicle>

    <vehicle id="flow_29_increasing_300_W_straight.2" type="truck" depart="360.00" departLane="0" departPos="109.2982" departSpeed="0.362" speedFactor="0.9784" arrival="390.00">
        <route edges="W_in E_out"/>
    </vehicle>

    <vehicle id="flow_25_increasing_300_E_straight.2" type="truck" depart="356.00" departLane="1" departPos="67.694" departSpeed="0.1264" speedFactor="0.8196" arrival="393.00">
        <route edges="E_in W_out"/>
    </vehicle>

    <vehicle id="flow_21_increasing_300_S_straight.2" type="moto" depart="360.00" departLane="1" departPos="140.3456" departSpeed="11.2455" speedFactor="1.0448" arrival="395.00">
        <route edges="S_in N_out"/>
    </vehicle>

    <vehicle id="flow_17_increasing_300_N_straight.2" type="moto" depart="361.00" departLane="0" departPos="34.8311" departSpeed="5.5913" speedFactor="1.0140" arrival="395.00">
        <route edges="N_in S_out"/>
    </vehicle>

    <vehicle id="flow_22_increasing_300_S_left.1" type="moto" depart="372.00" departLane="0" departPos="131.4461" departSpeed="15.0726" speedFactor="1.1365" arrival="397.00">
        <route edges="S_in W_out"/>
    </vehicle>

    <vehicle id="flow_23_increasing_300_S_right.1" type="car" depart="373.00" departLane="0" departPos="172.0661" departSpeed="4.6183" speedFactor="1.0144" arrival="397.00">
        <route edges="S_in E_out"/>
    </vehicle>

    <vehicle id="flow_18_increasing_300_N_left.1" type="moto" depart="372.00" departLane="0" departPos="57.4616" departSpeed="6.0499" speedFactor="1.0699" arrival="400.00">
        <route edges="N_in E_out"/>
    </vehicle>

    <vehicle id="flow_31_increasing_300_W_right.1" type="moto" depart="371.00" departLane="1" departPos="169.9316" departSpeed="3.3599" speedFactor="1.0047" arrival="407.00">
        <route edges="W_in S_out"/>
    </vehicle>

    <vehicle id="flow_26_increasing_300_E_left.1" type="moto" depart="375.00" departLane="1" departPos="168.8768" departSpeed="11.4074" speedFactor="1.2552" arrival="407.00">
        <route edges="E_in S_out"/>
    </vehicle>

    <vehicle id="flow_27_increasing_300_E_right.1" type="car" depart="369.00" departLane="0" departPos="123.2337" departSpeed="6.9789" speedFactor="0.9547" arrival="408.00">
        <route edges="E_in N_out"/>
    </vehicle>

    <vehicle id="flow_25_increasing_300_E_straight.3" type="moto" depart="384.00" departLane="1" departPos="162.1669" departSpeed="0.1044" speedFactor="0.9584" arrival="411.00">
        <route edges="E_in W_out"/>
    </vehicle>

    <vehicle id="flow_30_increasing_300_W_left.1" type="moto" depart="376.00" departLane="0" departPos="161.6079" departSpeed="0.9419" speedFactor="0.8642" arrival="416.00">
        <route edges="W_in N_out"/>
    </vehicle>

    <vehicle id="flow_19_increasing_300_N_right.1" type="car" depart="374.00" departLane="0" departPos="3.1111" departSpeed="9.483" speedFactor="1.1290" arrival="417.00">
        <route edges="W_in N_out"/>
    </vehicle>

    <vehicle id="flow_17_increasing_300_N_straight.3" type="moto" depart="391.00" departLane="0" departPos="169.1917" departSpeed="10.6328" speedFactor="1.0856" arrival="420.00">
        <route edges="N_in S_out"/>
    </vehicle>

    <vehicle id="flow_21_increasing_300_S_straight.3" type="bus" depart="390.00" departLane="1" departPos="11.9624" departSpeed="0.7758" speedFactor="0.9819" arrival="426.00">
        <route edges="S_in N_out"/>
    </vehicle>

    <vehicle id="flow_29_increasing_300_W_straight.3" type="moto" depart="390.00" departLane="1" departPos="102.4537" departSpeed="0.5561" speedFactor="0.9282" arrival="435.00">
        <route edges="W_in E_out"/>
    </vehicle>

    <vehicle id="flow_25_increasing_300_E_straight.4" type="moto" depart="411.00" departLane="1" departPos="170.5857" departSpeed="9.5897" speedFactor="0.9059" arrival="435.00">
        <route edges="E_in W_out"/>
    </vehicle>

    <vehicle id="flow_29_increasing_300_W_straight.4" type="bus" depart="420.00" departLane="0" departPos="28.3376" departSpeed="10.834" speedFactor="0.9554" arrival="449.00">
        <route edges="W_in E_out"/>
    </vehicle>

    <vehicle id="flow_21_increasing_300_S_straight.4" type="moto" depart="419.00" departLane="0" departPos="128.7404" departSpeed="4.1812" speedFactor="1.2148" arrival="456.00">
        <route edges="S_in N_out"/>
    </vehicle>

    <vehicle id="flow_17_increasing_300_N_straight.4" type="moto" depart="421.00" departLane="1" departPos="21.3277" departSpeed="6.3531" speedFactor="0.8917" arrival="459.00">
        <route edges="N_in S_out"/>
    </vehicle>

    <vehicle id="flow_18_increasing_300_N_left.2" type="moto" depart="444.00" departLane="0" departPos="114.397" departSpeed="15.5331" speedFactor="1.1530" arrival="465.00">
        <route edges="N_in E_out"/>
    </vehicle>

    <vehicle id="flow_32_increasing_300_W_uturn.1" type="moto" depart="442.00" departLane="0" departPos="98.6919" departSpeed="1.913" speedFactor="1.1523" arrival="469.00">
        <route edges="W_in W_out"/>
    </vehicle>

    <vehicle id="flow_27_increasing_300_E_right.2" type="car" depart="438.00" departLane="1" departPos="38.4375" departSpeed="1.1374" speedFactor="0.9957" arrival="472.00">
        <route edges="E_in N_out"/>
    </vehicle>

    <vehicle id="flow_25_increasing_300_E_straight.5" type="moto" depart="439.00" departLane="0" departPos="170.7684" departSpeed="5.0212" speedFactor="0.8543" arrival="473.00">
        <route edges="E_in W_out"/>
    </vehicle>

    <vehicle id="flow_31_increasing_300_W_right.2" type="moto" depart="441.00" departLane="1" departPos="167.1176" departSpeed="0.6414" speedFactor="0.7657" arrival="474.00">
        <route edges="W_in S_out"/>
    </vehicle>

    <vehicle id="flow_29_increasing_300_W_straight.5" type="bus" depart="450.00" departLane="0" departPos="180.2387" departSpeed="0.7449" speedFactor="1.0217" arrival="474.00">
        <route edges="W_in E_out"/>
    </vehicle>

    <vehicle id="flow_30_increasing_300_W_left.2" type="truck" depart="452.00" departLane="1" departPos="149.4259" departSpeed="2.9573" speedFactor="1.0167" arrival="477.00">
        <route edges="W_in N_out"/>
    </vehicle>

    <vehicle id="flow_19_increasing_300_N_right.2" type="moto" depart="448.00" departLane="0" departPos="27.7577" departSpeed="12.6252" speedFactor="1.0747" arrival="478.00">
        <route edges="W_in N_out"/>
    </vehicle>

    <vehicle id="flow_28_increasing_300_E_uturn.1" type="truck" depart="443.00" departLane="1" departPos="43.1771" departSpeed="2.9051" speedFactor="0.8815" arrival="482.00">
        <route edges="E_in E_out"/>
    </vehicle>

    <vehicle id="flow_20_increasing_300_N_uturn.1" type="moto" depart="443.00" departLane="1" departPos="50.8725" departSpeed="11.4723" speedFactor="0.9662" arrival="484.00">
        <route edges="N_in N_out"/>
    </vehicle>

    <vehicle id="flow_23_increasing_300_S_right.2" type="moto" depart="446.00" departLane="1" departPos="138.898" departSpeed="10.0701" speedFactor="0.8756" arrival="486.00">
        <route edges="S_in E_out"/>
    </vehicle>

    <vehicle id="flow_21_increasing_300_S_straight.5" type="moto" depart="449.00" departLane="1" departPos="22.618" departSpeed="0.1884" speedFactor="0.9471" arrival="487.00">
        <route edges="S_in N_out"/>
    </vehicle>

    <vehicle id="flow_24_increasing_300_S_uturn.1" type="moto" depart="444.00" departLane="1" departPos="0.9771" departSpeed="7.2064" speedFactor="0.8416" arrival="489.00">
        <route edges="S_in S_out"/>
    </vehicle>

    <vehicle id="flow_17_increasing_300_N_straight.5" type="bus" depart="451.00" departLane="0" departPos="142.3358" departSpeed="8.7713" speedFactor="0.9363" arrival="489.00">
        <route edges="N_in S_out"/>
    </vehicle>

    <vehicle id="flow_22_increasing_300_S_left.2" type="moto" depart="444.00" departLane="1" departPos="120.4896" departSpeed="13.4984" speedFactor="0.9806" arrival="491.00">
        <route edges="S_in W_out"/>
    </vehicle>

    <vehicle id="flow_29_increasing_300_W_straight.6" type="moto" depart="480.00" departLane="1" departPos="105.322" departSpeed="5.4244" speedFactor="0.9174" arrival="506.00">
        <route edges="W_in E_out"/>
    </vehicle>

    <vehicle id="flow_26_increasing_300_E_left.2" type="truck" depart="450.00" departLane="0" departPos="7.5649" departSpeed="10.9479" speedFactor="0.9700" arrival="510.00">
        <route edges="E_in S_out"/>
    </vehicle>

    <vehicle id="flow_25_increasing_300_E_straight.6" type="truck" depart="467.00" departLane="0" departPos="81.0341" departSpeed="5.4449" speedFactor="0.9234" arrival="511.00">
        <route edges="E_in W_out"/>
    </vehicle>
