<?xml version="1.0" encoding="UTF-8"?>

<!-- generated on 2025-12-09 23:53:13 by Eclipse SUMO sumo Version 1.18.0
<configuration xmlns:xsi="http://www.w3.org/2001/XMLSchema-instance" xsi:noNamespaceSchemaLocation="http://sumo.dlr.de/xsd/sumoConfiguration.xsd">

    <input>
        <net-file value="/workspace/nets/120p4k/net.net.xml"/>
        <route-files value="/workspace/nets/120p4k/route_temp_830_125395600210432_23261340.rou.xml"/>
    </input>

    <output>
        <summary-output value="results/summary_ep_3.xml"/>
        <tripinfo-output value="results/tripinfo_ep_3.xml"/>
        <vehroute-output value="results/vehroute_ep_3.xml"/>
    </output>

    <time>
        <begin value="0"/>
    </time>

    <report>
        <verbose value="true"/>
        <no-step-log value="true"/>
    </report>

    <traci_server>
        <remote-port value="45695"/>
    </traci_server>

    <gui_only>
        <gui-settings-file value="/workspace/nets/120p4k/gui-settings.xml"/>
        <quit-on-end value="true"/>
    </gui_only>

</configuration>
-->

<tripinfos xmlns:xsi="http://www.w3.org/2001/XMLSchema-instance" xsi:noNamespaceSchemaLocation="http://sumo.dlr.de/xsd/tripinfo_file.xsd">
    <tripinfo id="flow_3_increasing_0_N_right.0" depart="0.00" departLane="N_in_0" departPos="103.38" departSpeed="3.81" departDelay="0.00" arrival="24.00" arrivalLane="W_out_0" arrivalPos="189.60" arrivalSpeed="14.24" duration="24.00" routeLength="284.85" waitingTime="0.00" waitingCount="0" stopTime="0.00" timeLoss="4.64" rerouteNo="0" devices="vehroute_flow_3_increasing_0_N_right.0 tripinfo_flow_3_increasing_0_N_right.0" vType="moto" speedFactor="1.11" vaporized=""/>
    <tripinfo id="flow_8_increasing_0_S_uturn.0" depart="0.00" departLane="S_in_0" departPos="120.11" departSpeed="4.48" departDelay="0.00" arrival="24.00" arrivalLane="S_out_1" arrivalPos="189.60" arrivalSpeed="13.41" duration="24.00" routeLength="263.76" waitingTime="0.00" waitingCount="0" stopTime="0.00" timeLoss="4.90" rerouteNo="0" devices="vehroute_flow_8_increasing_0_S_uturn.0 tripinfo_flow_8_increasing_0_S_uturn.0" vType="moto" speedFactor="1.05" vaporized=""/>
    <tripinfo id="flow_5_increasing_0_S_straight.0" depart="0.00" departLane="S_in_1" departPos="107.37" departSpeed="7.21" departDelay="0.00" arrival="25.00" arrivalLane="N_out_1" arrivalPos="189.60" arrivalSpeed="15.67" duration="25.00" routeLength="292.63" waitingTime="0.00" waitingCount="0" stopTime="0.00" timeLoss="6.12" rerouteNo="0" devices="vehroute_flow_5_increasing_0_S_straight.0 tripinfo_flow_5_increasing_0_S_straight.0" vType="moto" speedFactor="1.15" vaporized=""/>
    <tripinfo id="flow_6_increasing_0_S_left.0" depart="0.00" departLane="S_in_1" departPos="166.01" departSpeed="0.74" departDelay="0.00" arrival="25.00" arrivalLane="W_out_1" arrivalPos="189.60" arrivalSpeed="11.57" duration="25.00" routeLength="232.54" waitingTime="0.00" waitingCount="0" stopTime="0.00" timeLoss="4.35" rerouteNo="0" devices="vehroute_flow_6_increasing_0_S_left.0 tripinfo_flow_6_increasing_0_S_left.0" vType="moto" speedFactor="0.88" vaporized=""/>
    <tripinfo id="flow_2_increasing_0_N_left.0" depart="0.00" departLane="N_in_1" departPos="8.27" departSpeed="8.33" departDelay="0.00" arrival="32.00" arrivalLane="E_out_1" arrivalPos="189.60" arrivalSpeed="14.04" duration="32.00" routeLength="390.28" waitingTime="0.00" waitingCount="0" stopTime="0.00" timeLoss="2.82" rerouteNo="0" devices="vehroute_flow_2_increasing_0_N_left.0 tripinfo_flow_2_increasing_0_N_left.0" vType="moto" speedFactor="1.02" vaporized=""/>
    <tripinfo id="flow_4_increasing_0_N_uturn.0" depart="0.00" departLane="N_in_1" departPos="127.60" departSpeed="0.08" departDelay="0.00" arrival="32.00" arrivalLane="N_out_1" arrivalPos="189.60" arrivalSpeed="12.27" duration="32.00" routeLength="256.27" waitingTime="1.00" waitingCount="1" stopTime="0.00" timeLoss="9.82" rerouteNo="0" devices="vehroute_flow_4_increasing_0_N_uturn.0 tripinfo_flow_4_increasing_0_N_uturn.0" vType="moto" speedFactor="0.91" vaporized=""/>
    <tripinfo id="flow_10_increasing_0_E_left.0" depart="0.00" departLane="E_in_0" departPos="44.88" departSpeed="8.19" departDelay="0.00" arrival="35.00" arrivalLane="S_out_1" arrivalPos="189.60" arrivalSpeed="14.41" duration="35.00" routeLength="353.67" waitingTime="3.00" waitingCount="1" stopTime="0.00" timeLoss="10.81" rerouteNo="0" devices="vehroute_flow_10_increasing_0_E_left.0 tripinfo_flow_10_increasing_0_E_left.0" vType="car" speedFactor="1.08" vaporized=""/>
    <tripinfo id="flow_16_increasing_0_W_uturn.0" depart="0.00" departLane="W_in_0" departPos="135.67" departSpeed="9.64" departDelay="0.00" arrival="36.00" arrivalLane="W_out_1" arrivalPos="189.60" arrivalSpeed="14.32" duration="36.00" routeLength="248.20" waitingTime="11.00" waitingCount="1" stopTime="0.00" timeLoss="17.04" rerouteNo="0" devices="vehroute_flow_16_increasing_0_W_uturn.0 tripinfo_flow_16_increasing_0_W_uturn.0" vType="moto" speedFactor="1.04" vaporized=""/>
    <tripinfo id="flow_9_increasing_0_E_straight.0" depart="0.00" departLane="E_in_0" departPos="168.29" departSpeed="10.73" departDelay="0.00" arrival="37.00" arrivalLane="W_out_0" arrivalPos="189.60" arrivalSpeed="12.33" duration="37.00" routeLength="231.71" waitingTime="13.00" waitingCount="1" stopTime="0.00" timeLoss="18.63" rerouteNo="0" devices="vehroute_flow_9_increasing_0_E_straight.0 tripinfo_flow_9_increasing_0_E_straight.0" vType="car" speedFactor="0.94" vaporized=""/>
    <tripinfo id="flow_14_increasing_0_W_left.0" depart="0.00" departLane="W_in_1" departPos="42.31" departSpeed="3.71" departDelay="0.00" arrival="38.00" arrivalLane="N_out_1" arrivalPos="189.60" arrivalSpeed="13.91" duration="38.00" routeLength="356.24" waitingTime="3.00" waitingCount="1" stopTime="0.00" timeLoss="11.70" rerouteNo="0" devices="vehroute_flow_14_increasing_0_W_left.0 tripinfo_flow_14_increasing_0_W_left.0" vType="moto" speedFactor="1.01" vaporized=""/>
    <tripinfo id="flow_12_increasing_0_E_uturn.0" depart="0.00" departLane="E_in_0" departPos="5.65" departSpeed="13.76" departDelay="0.00" arrival="39.00" arrivalLane="E_out_1" arrivalPos="189.60" arrivalSpeed="13.58" duration="39.00" routeLength="378.22" waitingTime="3.00" waitingCount="1" stopTime="0.00" timeLoss="10.73" rerouteNo="0" devices="vehroute_flow_12_increasing_0_E_uturn.0 tripinfo_flow_12_increasing_0_E_uturn.0" vType="moto" speedFactor="1.03" vaporized=""/>
    <tripinfo id="flow_15_increasing_0_W_right.0" depart="0.00" departLane="W_in_1" departPos="153.90" departSpeed="6.73" departDelay="0.00" arrival="39.00" arrivalLane="S_out_0" arrivalPos="189.60" arrivalSpeed="10.73" duration="39.00" routeLength="234.33" waitingTime="10.00" waitingCount="1" stopTime="0.00" timeLoss="17.76" rerouteNo="0" devices="vehroute_flow_15_increasing_0_W_right.0 tripinfo_flow_15_increasing_0_W_right.0" vType="moto" speedFactor="0.85" vaporized=""/>
    <tripinfo id="flow_11_increasing_0_E_right.0" depart="0.00" departLane="E_in_1" departPos="144.95" departSpeed="4.02" departDelay="0.00" arrival="41.00" arrivalLane="N_out_0" arrivalPos="189.60" arrivalSpeed="13.27" duration="41.00" routeLength="243.28" waitingTime="9.00" waitingCount="1" stopTime="0.00" timeLoss="21.94" rerouteNo="0" devices="vehroute_flow_11_increasing_0_E_right.0 tripinfo_flow_11_increasing_0_E_right.0" vType="bus" speedFactor="0.96" vaporized=""/>
    <tripinfo id="flow_13_increasing_0_W_straight.0" depart="0.00" departLane="E_in_0" departPos="77.99" departSpeed="3.97" departDelay="0.00" arrival="47.00" arrivalLane="N_out_0" arrivalPos="189.60" arrivalSpeed="11.71" duration="47.00" routeLength="310.24" waitingTime="6.00" waitingCount="1" stopTime="0.00" timeLoss="20.02" rerouteNo="0" devices="vehroute_flow_13_increasing_0_W_straight.0 tripinfo_flow_13_increasing_0_W_straight.0" vType="bus" speedFactor="0.86" vaporized=""/>
    <tripinfo id="flow_7_increasing_0_S_right.0" depart="0.00" departLane="S_in_0" departPos="8.76" departSpeed="8.47" departDelay="0.00" arrival="54.00" arrivalLane="E_out_0" arrivalPos="189.60" arrivalSpeed="11.68" duration="54.00" routeLength="379.47" waitingTime="13.00" waitingCount="1" stopTime="0.00" timeLoss="22.11" rerouteNo="0" devices="vehroute_flow_7_increasing_0_S_right.0 tripinfo_flow_7_increasing_0_S_right.0" vType="bus" speedFactor="0.89" vaporized=""/>
    <tripinfo id="flow_1_increasing_0_N_straight.0" depart="0.00" departLane="N_in_0" departPos="8.62" departSpeed="8.51" departDelay="0.00" arrival="55.00" arrivalLane="S_out_0" arrivalPos="189.60" arrivalSpeed="11.68" duration="55.00" routeLength="391.38" waitingTime="11.00" waitingCount="1" stopTime="0.00" timeLoss="21.94" rerouteNo="0" devices="vehroute_flow_1_increasing_0_N_straight.0 tripinfo_flow_1_increasing_0_N_straight.0" vType="truck" speedFactor="0.86" vaporized=""/>
    <tripinfo id="flow_5_increasing_0_S_straight.1" depart="40.00" departLane="S_in_0" departPos="93.39" departSpeed="3.73" departDelay="0.20" arrival="68.00" arrivalLane="N_out_0" arrivalPos="189.60" arrivalSpeed="12.01" duration="28.00" routeLength="306.61" waitingTime="0.00" waitingCount="0" stopTime="0.00" timeLoss="2.22" rerouteNo="0" devices="vehroute_flow_5_increasing_0_S_straight.1 tripinfo_flow_5_increasing_0_S_straight.1" vType="moto" speedFactor="0.87" vaporized=""/>
    <tripinfo id="flow_13_increasing_0_W_straight.1" depart="41.00" departLane="E_in_1" departPos="181.05" departSpeed="2.69" departDelay="0.60" arrival="70.00" arrivalLane="N_out_0" arrivalPos="189.60" arrivalSpeed="15.49" duration="29.00" routeLength="207.18" waitingTime="9.00" waitingCount="1" stopTime="0.00" timeLoss="14.88" rerouteNo="0" devices="vehroute_flow_13_increasing_0_W_straight.1 tripinfo_flow_13_increasing_0_W_straight.1" vType="moto" speedFactor="1.19" vaporized=""/>
    <tripinfo id="flow_9_increasing_0_E_straight.1" depart="39.00" departLane="E_in_1" departPos="177.29" departSpeed="8.41" departDelay="0.54" arrival="71.00" arrivalLane="W_out_0" arrivalPos="189.60" arrivalSpeed="14.80" duration="32.00" routeLength="222.71" waitingTime="11.00" waitingCount="1" stopTime="0.00" timeLoss="17.51" rerouteNo="0" devices="vehroute_flow_9_increasing_0_E_straight.1 tripinfo_flow_9_increasing_0_E_straight.1" vType="moto" speedFactor="1.16" vaporized=""/>
    <tripinfo id="flow_1_increasing_0_N_straight.1" depart="42.00" departLane="N_in_1" departPos="28.79" departSpeed="10.22" departDelay="0.12" arrival="94.00" arrivalLane="S_out_0" arrivalPos="189.60" arrivalSpeed="14.69" duration="52.00" routeLength="371.21" waitingTime="20.00" waitingCount="1" stopTime="0.00" timeLoss="28.33" rerouteNo="0" devices="vehroute_flow_1_increasing_0_N_straight.1 tripinfo_flow_1_increasing_0_N_straight.1" vType="moto" speedFactor="1.15" vaporized=""/>
    <tripinfo id="flow_5_increasing_0_S_straight.2" depart="80.00" departLane="S_in_0" departPos="33.93" departSpeed="0.90" departDelay="0.40" arrival="111.00" arrivalLane="N_out_0" arrivalPos="189.60" arrivalSpeed="12.99" duration="31.00" routeLength="366.07" waitingTime="0.00" waitingCount="0" stopTime="0.00" timeLoss="3.51" rerouteNo="0" devices="vehroute_flow_5_increasing_0_S_straight.2 tripinfo_flow_5_increasing_0_S_straight.2" vType="moto" speedFactor="0.96" vaporized=""/>
    <tripinfo id="flow_1_increasing_0_N_straight.2" depart="84.00" departLane="N_in_1" departPos="39.28" departSpeed="7.32" departDelay="0.23" arrival="114.00" arrivalLane="S_out_0" arrivalPos="189.60" arrivalSpeed="12.85" duration="30.00" routeLength="360.72" waitingTime="0.00" waitingCount="0" stopTime="0.00" timeLoss="1.78" rerouteNo="0" devices="vehroute_flow_1_increasing_0_N_straight.2 tripinfo_flow_1_increasing_0_N_straight.2" vType="moto" speedFactor="0.93" vaporized=""/>
    <tripinfo id="flow_9_increasing_0_E_straight.2" depart="77.00" departLane="E_in_1" departPos="103.67" departSpeed="3.85" departDelay="0.08" arrival="119.00" arrivalLane="W_out_0" arrivalPos="189.60" arrivalSpeed="12.86" duration="42.00" routeLength="296.33" waitingTime="11.00" waitingCount="1" stopTime="0.00" timeLoss="19.72" rerouteNo="0" devices="vehroute_flow_9_increasing_0_E_straight.2 tripinfo_flow_9_increasing_0_E_straight.2" vType="moto" speedFactor="0.99" vaporized=""/>
    <tripinfo id="flow_13_increasing_0_W_straight.2" depart="81.00" departLane="E_in_1" departPos="64.28" departSpeed="4.21" departDelay="0.19" arrival="123.00" arrivalLane="N_out_0" arrivalPos="189.60" arrivalSpeed="13.03" duration="42.00" routeLength="323.95" waitingTime="3.00" waitingCount="1" stopTime="0.00" timeLoss="16.36" rerouteNo="0" devices="vehroute_flow_13_increasing_0_W_straight.2 tripinfo_flow_13_increasing_0_W_straight.2" vType="truck" speedFactor="0.97" vaporized=""/>
    <tripinfo id="flow_15_increasing_0_W_right.1" depart="99.00" departLane="W_in_0" departPos="80.24" departSpeed="9.78" departDelay="0.96" arrival="124.00" arrivalLane="S_out_0" arrivalPos="189.60" arrivalSpeed="13.43" duration="25.00" routeLength="307.99" waitingTime="0.00" waitingCount="0" stopTime="0.00" timeLoss="2.56" rerouteNo="0" devices="vehroute_flow_15_increasing_0_W_right.1 tripinfo_flow_15_increasing_0_W_right.1" vType="moto" speedFactor="1.04" vaporized=""/>
    <tripinfo id="flow_14_increasing_0_W_left.1" depart="100.00" departLane="W_in_1" departPos="79.10" departSpeed="8.50" departDelay="0.50" arrival="126.00" arrivalLane="N_out_1" arrivalPos="189.60" arrivalSpeed="14.19" duration="26.00" routeLength="319.45" waitingTime="0.00" waitingCount="0" stopTime="0.00" timeLoss="2.30" rerouteNo="0" devices="vehroute_flow_14_increasing_0_W_left.1 tripinfo_flow_14_increasing_0_W_left.1" vType="moto" speedFactor="1.05" vaporized=""/>
    <tripinfo id="flow_11_increasing_0_E_right.1" depart="102.00" departLane="E_in_0" departPos="166.00" departSpeed="1.28" departDelay="0.48" arrival="126.00" arrivalLane="N_out_0" arrivalPos="189.60" arrivalSpeed="10.98" duration="24.00" routeLength="222.23" waitingTime="0.00" waitingCount="0" stopTime="0.00" timeLoss="4.51" rerouteNo="0" devices="vehroute_flow_11_increasing_0_E_right.1 tripinfo_flow_11_increasing_0_E_right.1" vType="moto" speedFactor="0.88" vaporized=""/>
    <tripinfo id="flow_2_increasing_0_N_left.1" depart="98.00" departLane="N_in_0" departPos="15.17" departSpeed="0.73" departDelay="0.44" arrival="129.00" arrivalLane="E_out_1" arrivalPos="189.60" arrivalSpeed="15.06" duration="31.00" routeLength="383.38" waitingTime="0.00" waitingCount="0" stopTime="0.00" timeLoss="5.86" rerouteNo="0" devices="vehroute_flow_2_increasing_0_N_left.1 tripinfo_flow_2_increasing_0_N_left.1" vType="moto" speedFactor="1.12" vaporized=""/>
    <tripinfo id="flow_6_increasing_0_S_left.1" depart="100.00" departLane="S_in_1" departPos="97.23" departSpeed="5.84" departDelay="0.50" arrival="130.00" arrivalLane="W_out_1" arrivalPos="189.60" arrivalSpeed="13.84" duration="30.00" routeLength="301.32" waitingTime="2.00" waitingCount="1" stopTime="0.00" timeLoss="8.55" rerouteNo="0" devices="vehroute_flow_6_increasing_0_S_left.1 tripinfo_flow_6_increasing_0_S_left.1" vType="moto" speedFactor="1.08" vaporized=""/>
    <tripinfo id="flow_3_increasing_0_N_right.1" depart="105.00" departLane="N_in_0" departPos="93.41" departSpeed="11.76" departDelay="0.83" arrival="135.00" arrivalLane="W_out_0" arrivalPos="189.60" arrivalSpeed="12.21" duration="30.00" routeLength="294.82" waitingTime="0.00" waitingCount="0" stopTime="0.00" timeLoss="5.18" rerouteNo="0" devices="vehroute_flow_3_increasing_0_N_right.1 tripinfo_flow_3_increasing_0_N_right.1" vType="container" speedFactor="0.91" vaporized=""/>
    <tripinfo id="flow_5_increasing_0_S_straight.3" depart="120.00" departLane="S_in_0" departPos="184.19" departSpeed="8.58" departDelay="0.60" arrival="136.00" arrivalLane="N_out_0" arrivalPos="189.60" arrivalSpeed="13.99" duration="16.00" routeLength="215.81" waitingTime="0.00" waitingCount="0" stopTime="0.00" timeLoss="1.05" rerouteNo="0" devices="vehroute_flow_5_increasing_0_S_straight.3 tripinfo_flow_5_increasing_0_S_straight.3" vType="moto" speedFactor="1.08" vaporized=""/>
    <tripinfo id="flow_7_increasing_0_S_right.1" depart="98.00" departLane="S_in_0" departPos="54.99" departSpeed="3.84" departDelay="0.44" arrival="138.00" arrivalLane="E_out_0" arrivalPos="189.60" arrivalSpeed="10.61" duration="40.00" routeLength="333.24" waitingTime="0.00" waitingCount="0" stopTime="0.00" timeLoss="8.02" rerouteNo="0" devices="vehroute_flow_7_increasing_0_S_right.1 tripinfo_flow_7_increasing_0_S_right.1" vType="container" speedFactor="0.78" vaporized=""/>
    <tripinfo id="flow_13_increasing_0_W_straight.3" depart="122.00" departLane="E_in_0" departPos="65.01" departSpeed="6.58" departDelay="0.79" arrival="155.00" arrivalLane="N_out_0" arrivalPos="189.60" arrivalSpeed="14.85" duration="33.00" routeLength="323.22" waitingTime="2.00" waitingCount="1" stopTime="0.00" timeLoss="11.93" rerouteNo="0" devices="vehroute_flow_13_increasing_0_W_straight.3 tripinfo_flow_13_increasing_0_W_straight.3" vType="moto" speedFactor="1.20" vaporized=""/>
    <tripinfo id="flow_10_increasing_0_E_left.1" depart="102.00" departLane="E_in_0" departPos="4.52" departSpeed="10.46" departDelay="0.48" arrival="159.00" arrivalLane="S_out_0" arrivalPos="189.60" arrivalSpeed="9.62" duration="57.00" routeLength="394.03" waitingTime="14.00" waitingCount="1" stopTime="0.00" timeLoss="18.53" rerouteNo="0" devices="vehroute_flow_10_increasing_0_E_left.1 tripinfo_flow_10_increasing_0_E_left.1" vType="car" speedFactor="0.77" vaporized=""/>
    <tripinfo id="flow_9_increasing_0_E_straight.3" depart="116.00" departLane="E_in_0" departPos="86.42" departSpeed="8.41" departDelay="0.61" arrival="159.00" arrivalLane="W_out_0" arrivalPos="189.60" arrivalSpeed="11.47" duration="43.00" routeLength="313.58" waitingTime="6.00" waitingCount="1" stopTime="0.00" timeLoss="16.36" rerouteNo="0" devices="vehroute_flow_9_increasing_0_E_straight.3 tripinfo_flow_9_increasing_0_E_straight.3" vType="truck" speedFactor="0.85" vaporized=""/>
    <tripinfo id="flow_1_increasing_0_N_straight.3" depart="126.00" departLane="N_in_1" departPos="88.42" departSpeed="1.49" departDelay="0.35" arrival="167.00" arrivalLane="S_out_0" arrivalPos="189.60" arrivalSpeed="13.72" duration="41.00" routeLength="311.58" waitingTime="9.00" waitingCount="1" stopTime="0.00" timeLoss="18.92" rerouteNo="0" devices="vehroute_flow_1_increasing_0_N_straight.3 tripinfo_flow_1_increasing_0_N_straight.3" vType="moto" speedFactor="1.06" vaporized=""/>
    <tripinfo id="flow_9_increasing_0_E_straight.4" depart="154.00" departLane="E_in_1" departPos="53.32" departSpeed="10.34" departDelay="0.15" arrival="194.00" arrivalLane="W_out_0" arrivalPos="189.60" arrivalSpeed="12.64" duration="40.00" routeLength="346.68" waitingTime="3.00" waitingCount="1" stopTime="0.00" timeLoss="13.63" rerouteNo="0" devices="vehroute_flow_9_increasing_0_E_straight.4 tripinfo_flow_9_increasing_0_E_straight.4" vType="bus" speedFactor="0.95" vaporized=""/>
    <tripinfo id="flow_13_increasing_0_W_straight.4" depart="162.00" departLane="E_in_0" departPos="70.46" departSpeed="10.65" departDelay="0.38" arrival="198.00" arrivalLane="N_out_0" arrivalPos="189.60" arrivalSpeed="11.75" duration="36.00" routeLength="317.77" waitingTime="0.00" waitingCount="0" stopTime="0.00" timeLoss="8.34" rerouteNo="0" devices="vehroute_flow_13_increasing_0_W_straight.4 tripinfo_flow_13_increasing_0_W_straight.4" vType="truck" speedFactor="0.87" vaporized=""/>
    <tripinfo id="flow_1_increasing_0_N_straight.4" depart="168.00" departLane="N_in_1" departPos="74.07" departSpeed="0.57" departDelay="0.46" arrival="214.00" arrivalLane="S_out_0" arrivalPos="189.60" arrivalSpeed="12.42" duration="46.00" routeLength="325.93" waitingTime="12.00" waitingCount="1" stopTime="0.00" timeLoss="20.97" rerouteNo="0" devices="vehroute_flow_1_increasing_0_N_straight.4 tripinfo_flow_1_increasing_0_N_straight.4" vType="car" speedFactor="0.96" vaporized=""/>
    <tripinfo id="flow_4_increasing_0_N_uturn.1" depart="192.00" departLane="N_in_1" departPos="160.30" departSpeed="13.98" departDelay="0.61" arrival="214.00" arrivalLane="N_out_1" arrivalPos="189.60" arrivalSpeed="13.49" duration="22.00" routeLength="223.57" waitingTime="0.00" waitingCount="0" stopTime="0.00" timeLoss="4.65" rerouteNo="0" devices="vehroute_flow_4_increasing_0_N_uturn.1 tripinfo_flow_4_increasing_0_N_uturn.1" vType="moto" speedFactor="1.03" vaporized=""/>
    <tripinfo id="flow_5_increasing_0_S_straight.4" depart="160.00" departLane="S_in_0" departPos="135.24" departSpeed="1.68" departDelay="0.80" arrival="222.00" arrivalLane="N_out_0" arrivalPos="189.60" arrivalSpeed="13.45" duration="62.00" routeLength="264.76" waitingTime="21.00" waitingCount="1" stopTime="0.00" timeLoss="41.72" rerouteNo="0" devices="vehroute_flow_5_increasing_0_S_straight.4 tripinfo_flow_5_increasing_0_S_straight.4" vType="container" speedFactor="0.97" vaporized=""/>
    <tripinfo id="flow_13_increasing_0_W_straight.5" depart="203.00" departLane="E_in_1" departPos="174.17" departSpeed="7.91" departDelay="0.98" arrival="225.00" arrivalLane="N_out_0" arrivalPos="189.60" arrivalSpeed="14.03" duration="22.00" routeLength="214.06" waitingTime="1.00" waitingCount="1" stopTime="0.00" timeLoss="6.16" rerouteNo="0" devices="vehroute_flow_13_increasing_0_W_straight.5 tripinfo_flow_13_increasing_0_W_straight.5" vType="moto" speedFactor="1.07" vaporized=""/>
    <tripinfo id="flow_2_increasing_0_N_left.2" depart="196.00" departLane="N_in_1" departPos="129.09" departSpeed="4.74" departDelay="0.88" arrival="226.00" arrivalLane="E_out_1" arrivalPos="189.60" arrivalSpeed="12.42" duration="30.00" routeLength="269.46" waitingTime="0.00" waitingCount="0" stopTime="0.00" timeLoss="6.76" rerouteNo="0" devices="vehroute_flow_2_increasing_0_N_left.2 tripinfo_flow_2_increasing_0_N_left.2" vType="container" speedFactor="0.90" vaporized=""/>
    <tripinfo id="flow_15_increasing_0_W_right.2" depart="197.00" departLane="W_in_0" departPos="155.68" departSpeed="8.48" departDelay="0.92" arrival="226.00" arrivalLane="S_out_0" arrivalPos="189.60" arrivalSpeed="12.56" duration="29.00" routeLength="232.55" waitingTime="6.00" waitingCount="1" stopTime="0.00" timeLoss="10.97" rerouteNo="0" devices="vehroute_flow_15_increasing_0_W_right.2 tripinfo_flow_15_increasing_0_W_right.2" vType="moto" speedFactor="0.95" vaporized=""/>
    <tripinfo id="flow_10_increasing_0_E_left.2" depart="204.00" departLane="E_in_1" departPos="172.37" departSpeed="7.72" departDelay="0.95" arrival="226.00" arrivalLane="S_out_1" arrivalPos="189.60" arrivalSpeed="15.49" duration="22.00" routeLength="226.18" waitingTime="0.00" waitingCount="0" stopTime="0.00" timeLoss="6.55" rerouteNo="0" devices="vehroute_flow_10_increasing_0_E_left.2 tripinfo_flow_10_increasing_0_E_left.2" vType="moto" speedFactor="1.14" vaporized=""/>
    <tripinfo id="flow_11_increasing_0_E_right.2" depart="204.00" departLane="E_in_0" departPos="161.41" departSpeed="1.65" departDelay="0.95" arrival="226.00" arrivalLane="N_out_0" arrivalPos="189.60" arrivalSpeed="13.48" duration="22.00" routeLength="226.82" waitingTime="0.00" waitingCount="0" stopTime="0.00" timeLoss="5.47" rerouteNo="0" devices="vehroute_flow_11_increasing_0_E_right.2 tripinfo_flow_11_increasing_0_E_right.2" vType="moto" speedFactor="1.04" vaporized=""/>
    <tripinfo id="flow_9_increasing_0_E_straight.5" depart="193.00" departLane="E_in_1" departPos="65.33" departSpeed="12.53" departDelay="0.69" arrival="227.00" arrivalLane="W_out_0" arrivalPos="189.60" arrivalSpeed="13.08" duration="34.00" routeLength="334.67" waitingTime="2.00" waitingCount="1" stopTime="0.00" timeLoss="9.20" rerouteNo="0" devices="vehroute_flow_9_increasing_0_E_straight.5 tripinfo_flow_9_increasing_0_E_straight.5" vType="moto" speedFactor="1.00" vaporized=""/>
    <tripinfo id="flow_16_increasing_0_W_uturn.1" depart="195.00" departLane="W_in_1" departPos="111.69" departSpeed="6.85" departDelay="0.83" arrival="228.00" arrivalLane="W_out_1" arrivalPos="189.60" arrivalSpeed="15.24" duration="33.00" routeLength="272.18" waitingTime="3.00" waitingCount="1" stopTime="0.00" timeLoss="14.19" rerouteNo="0" devices="vehroute_flow_16_increasing_0_W_uturn.1 tripinfo_flow_16_increasing_0_W_uturn.1" vType="moto" speedFactor="1.14" vaporized=""/>
    <tripinfo id="flow_14_increasing_0_W_left.2" depart="200.00" departLane="W_in_0" departPos="64.25" departSpeed="6.07" departDelay="1.00" arrival="232.00" arrivalLane="N_out_1" arrivalPos="189.60" arrivalSpeed="12.21" duration="32.00" routeLength="334.30" waitingTime="0.00" waitingCount="0" stopTime="0.00" timeLoss="4.86" rerouteNo="0" devices="vehroute_flow_14_increasing_0_W_left.2 tripinfo_flow_14_increasing_0_W_left.2" vType="car" speedFactor="0.93" vaporized=""/>
    <tripinfo id="flow_12_increasing_0_E_uturn.1" depart="198.00" departLane="E_in_1" departPos="2.77" departSpeed="6.78" departDelay="0.96" arrival="235.00" arrivalLane="E_out_1" arrivalPos="189.60" arrivalSpeed="11.79" duration="37.00" routeLength="381.10" waitingTime="0.00" waitingCount="0" stopTime="0.00" timeLoss="4.88" rerouteNo="0" devices="vehroute_flow_12_increasing_0_E_uturn.1 tripinfo_flow_12_increasing_0_E_uturn.1" vType="moto" speedFactor="0.89" vaporized=""/>
    <tripinfo id="flow_1_increasing_0_N_straight.5" depart="210.00" departLane="N_in_1" departPos="148.65" departSpeed="14.37" departDelay="0.58" arrival="248.00" arrivalLane="S_out_1" arrivalPos="189.60" arrivalSpeed="14.78" duration="38.00" routeLength="251.35" waitingTime="15.00" waitingCount="1" stopTime="0.00" timeLoss="21.28" rerouteNo="0" devices="vehroute_flow_1_increasing_0_N_straight.5 tripinfo_flow_1_increasing_0_N_straight.5" vType="moto" speedFactor="1.10" vaporized=""/>
    <tripinfo id="flow_5_increasing_0_S_straight.5" depart="200.00" departLane="S_in_0" departPos="91.52" departSpeed="11.56" departDelay="1.00" arrival="250.00" arrivalLane="N_out_0" arrivalPos="189.60" arrivalSpeed="12.19" duration="50.00" routeLength="308.48" waitingTime="19.00" waitingCount="1" stopTime="0.00" timeLoss="26.26" rerouteNo="0" devices="vehroute_flow_5_increasing_0_S_straight.5 tripinfo_flow_5_increasing_0_S_straight.5" vType="moto" speedFactor="0.94" vaporized=""/>
    <tripinfo id="flow_7_increasing_0_S_right.2" depart="196.00" departLane="S_in_1" departPos="19.51" departSpeed="7.87" departDelay="0.88" arrival="251.00" arrivalLane="E_out_0" arrivalPos="189.60" arrivalSpeed="12.90" duration="55.00" routeLength="368.72" waitingTime="18.00" waitingCount="1" stopTime="0.00" timeLoss="27.18" rerouteNo="0" devices="vehroute_flow_7_increasing_0_S_right.2 tripinfo_flow_7_increasing_0_S_right.2" vType="car" speedFactor="0.99" vaporized=""/>
    <tripinfo id="flow_3_increasing_0_N_right.2" depart="209.00" departLane="N_in_1" departPos="188.98" departSpeed="0.62" departDelay="0.67" arrival="251.00" arrivalLane="W_out_0" arrivalPos="189.60" arrivalSpeed="12.18" duration="42.00" routeLength="199.25" waitingTime="20.00" waitingCount="1" stopTime="0.00" timeLoss="24.66" rerouteNo="0" devices="vehroute_flow_3_increasing_0_N_right.2 tripinfo_flow_3_increasing_0_N_right.2" vType="moto" speedFactor="0.90" vaporized=""/>
    <tripinfo id="flow_6_increasing_0_S_left.2" depart="200.00" departLane="S_in_1" departPos="65.57" departSpeed="2.39" departDelay="1.00" arrival="252.00" arrivalLane="W_out_1" arrivalPos="189.60" arrivalSpeed="13.62" duration="52.00" routeLength="332.98" waitingTime="19.00" waitingCount="2" stopTime="0.00" timeLoss="27.49" rerouteNo="0" devices="vehroute_flow_6_increasing_0_S_left.2 tripinfo_flow_6_increasing_0_S_left.2" vType="moto" speedFactor="1.03" vaporized=""/>
    <tripinfo id="flow_8_increasing_0_S_uturn.1" depart="211.00" departLane="S_in_0" departPos="63.10" departSpeed="10.53" departDelay="0.47" arrival="255.00" arrivalLane="S_out_1" arrivalPos="189.60" arrivalSpeed="12.13" duration="44.00" routeLength="320.77" waitingTime="8.00" waitingCount="2" stopTime="0.00" timeLoss="17.35" rerouteNo="0" devices="vehroute_flow_8_increasing_0_S_uturn.1 tripinfo_flow_8_increasing_0_S_uturn.1" vType="car" speedFactor="0.90" vaporized=""/>
    <tripinfo id="flow_9_increasing_0_E_straight.6" depart="231.00" departLane="E_in_1" departPos="84.66" departSpeed="2.17" departDelay="0.23" arrival="262.00" arrivalLane="W_out_0" arrivalPos="189.60" arrivalSpeed="13.43" duration="31.00" routeLength="315.34" waitingTime="1.00" waitingCount="1" stopTime="0.00" timeLoss="8.63" rerouteNo="0" devices="vehroute_flow_9_increasing_0_E_straight.6 tripinfo_flow_9_increasing_0_E_straight.6" vType="moto" speedFactor="1.02" vaporized=""/>
    <tripinfo id="flow_13_increasing_0_W_straight.6" depart="243.00" departLane="E_in_1" departPos="29.88" departSpeed="10.82" departDelay="0.58" arrival="274.00" arrivalLane="N_out_0" arrivalPos="189.60" arrivalSpeed="13.48" duration="31.00" routeLength="358.35" waitingTime="0.00" waitingCount="0" stopTime="0.00" timeLoss="3.77" rerouteNo="0" devices="vehroute_flow_13_increasing_0_W_straight.6 tripinfo_flow_13_increasing_0_W_straight.6" vType="moto" speedFactor="0.97" vaporized=""/>
    <tripinfo id="flow_5_increasing_0_S_straight.6" depart="239.00" departLane="S_in_1" departPos="84.30" departSpeed="11.04" departDelay="0.19" arrival="285.00" arrivalLane="N_out_0" arrivalPos="189.60" arrivalSpeed="14.12" duration="46.00" routeLength="315.70" waitingTime="16.00" waitingCount="1" stopTime="0.00" timeLoss="24.51" rerouteNo="0" devices="vehroute_flow_5_increasing_0_S_straight.6 tripinfo_flow_5_increasing_0_S_straight.6" vType="moto" speedFactor="1.10" vaporized=""/>