<?xml version="1.0" encoding="UTF-8"?>

<!-- generated on 2025-12-09 23:52:17 by Eclipse SUMO sumo Version 1.18.0
<configuration xmlns:xsi="http://www.w3.org/2001/XMLSchema-instance" xsi:noNamespaceSchemaLocation="http://sumo.dlr.de/xsd/sumoConfiguration.xsd">

    <input>
        <net-file value="/workspace/nets/120p4k/net.net.xml"/>
        <route-files value="/workspace/nets/120p4k/route_temp_830_125395600210432_23261340.rou.xml"/>
    </input>

    <output>
        <summary-output value="results/summary_ep_2.xml"/>
        <tripinfo-output value="results/tripinfo_ep_2.xml"/>
        <vehroute-output value="results/vehroute_ep_2.xml"/>
    </output>

    <time>
        <begin value="0"/>
    </time>

    <report>
        <verbose value="true"/>
        <no-step-log value="true"/>
    </report>

    <traci_server>
        <remote-port value="42371"/>
    </traci_server>

    <gui_only>
        <gui-settings-file value="/workspace/nets/120p4k/gui-settings.xml"/>
        <quit-on-end value="true"/>
    </gui_only>

</configuration>
-->

<tripinfos xmlns:xsi="http://www.w3.org/2001/XMLSchema-instance" xsi:noNamespaceSchemaLocation="http://sumo.dlr.de/xsd/tripinfo_file.xsd">
    <tripinfo id="flow_5_increasing_0_S_straight.0" depart="0.00" departLane="N_in_1" departPos="107.37" departSpeed="7.21" departDelay="0.00" arrival="22.00" arrivalLane="W_out_0" arrivalPos="189.60" arrivalSpeed="15.08" duration="22.00" routeLength="280.86" waitingTime="0.00" waitingCount="0" stopTime="0.00" timeLoss="3.80" rerouteNo="0" devices="vehroute_flow_5_increasing_0_S_straight.0 tripinfo_flow_5_increasing_0_S_straight.0" vType="moto" speedFactor="1.15" vaporized=""/>
    <tripinfo id="flow_3_increasing_0_N_right.0" depart="0.00" departLane="N_in_0" departPos="103.38" departSpeed="3.81" departDelay="0.00" arrival="25.00" arrivalLane="W_out_0" arrivalPos="189.60" arrivalSpeed="15.09" duration="25.00" routeLength="284.85" waitingTime="0.00" waitingCount="0" stopTime="0.00" timeLoss="5.91" rerouteNo="0" devices="vehroute_flow_3_increasing_0_N_right.0 tripinfo_flow_3_increasing_0_N_right.0" vType="moto" speedFactor="1.11" vaporized=""/>
    <tripinfo id="flow_6_increasing_0_S_left.0" depart="0.00" departLane="S_in_1" departPos="166.01" departSpeed="0.74" departDelay="0.00" arrival="25.00" arrivalLane="W_out_1" arrivalPos="189.60" arrivalSpeed="11.84" duration="25.00" routeLength="232.54" waitingTime="0.00" waitingCount="0" stopTime="0.00" timeLoss="4.42" rerouteNo="0" devices="vehroute_flow_6_increasing_0_S_left.0 tripinfo_flow_6_increasing_0_S_left.0" vType="moto" speedFactor="0.88" vaporized=""/>
    <tripinfo id="flow_8_increasing_0_S_uturn.0" depart="0.00" departLane="S_in_0" departPos="120.11" departSpeed="4.48" departDelay="0.00" arrival="25.00" arrivalLane="S_out_1" arrivalPos="189.60" arrivalSpeed="13.35" duration="25.00" routeLength="263.76" waitingTime="0.00" waitingCount="0" stopTime="0.00" timeLoss="5.19" rerouteNo="0" devices="vehroute_flow_8_increasing_0_S_uturn.0 tripinfo_flow_8_increasing_0_S_uturn.0" vType="moto" speedFactor="1.05" vaporized=""/>
    <tripinfo id="flow_4_increasing_0_N_uturn.0" depart="0.00" departLane="N_in_1" departPos="127.60" departSpeed="0.08" departDelay="0.00" arrival="28.00" arrivalLane="N_out_1" arrivalPos="189.60" arrivalSpeed="11.63" duration="28.00" routeLength="256.27" waitingTime="0.00" waitingCount="0" stopTime="0.00" timeLoss="6.08" rerouteNo="0" devices="vehroute_flow_4_increasing_0_N_uturn.0 tripinfo_flow_4_increasing_0_N_uturn.0" vType="moto" speedFactor="0.91" vaporized=""/>
    <tripinfo id="flow_2_increasing_0_N_left.0" depart="0.00" departLane="N_in_1" departPos="8.27" departSpeed="8.33" departDelay="0.00" arrival="31.00" arrivalLane="E_out_1" arrivalPos="189.60" arrivalSpeed="13.94" duration="31.00" routeLength="390.28" waitingTime="0.00" waitingCount="0" stopTime="0.00" timeLoss="2.58" rerouteNo="0" devices="vehroute_flow_2_increasing_0_N_left.0 tripinfo_flow_2_increasing_0_N_left.0" vType="moto" speedFactor="1.02" vaporized=""/>
    <tripinfo id="flow_7_increasing_0_S_right.0" depart="0.00" departLane="S_in_0" departPos="8.76" departSpeed="8.47" departDelay="0.00" arrival="36.00" arrivalLane="E_out_0" arrivalPos="189.60" arrivalSpeed="11.73" duration="36.00" routeLength="379.47" waitingTime="0.00" waitingCount="0" stopTime="0.00" timeLoss="3.83" rerouteNo="0" devices="vehroute_flow_7_increasing_0_S_right.0 tripinfo_flow_7_increasing_0_S_right.0" vType="bus" speedFactor="0.89" vaporized=""/>
    <tripinfo id="flow_9_increasing_0_E_straight.0" depart="0.00" departLane="E_in_0" departPos="168.29" departSpeed="10.73" departDelay="0.00" arrival="37.00" arrivalLane="W_out_0" arrivalPos="189.60" arrivalSpeed="12.11" duration="37.00" routeLength="231.71" waitingTime="12.00" waitingCount="1" stopTime="0.00" timeLoss="18.76" rerouteNo="0" devices="vehroute_flow_9_increasing_0_E_straight.0 tripinfo_flow_9_increasing_0_E_straight.0" vType="car" speedFactor="0.94" vaporized=""/>
    <tripinfo id="flow_14_increasing_0_W_left.0" depart="0.00" departLane="W_in_1" departPos="182.88" departSpeed="5.61" departDelay="0.00" arrival="39.00" arrivalLane="N_out_1" arrivalPos="189.60" arrivalSpeed="13.49" duration="39.00" routeLength="215.67" waitingTime="15.00" waitingCount="2" stopTime="0.00" timeLoss="22.99" rerouteNo="0" devices="vehroute_flow_14_increasing_0_W_left.0 tripinfo_flow_14_increasing_0_W_left.0" vType="moto" speedFactor="1.01" vaporized=""/>
    <tripinfo id="flow_15_increasing_0_W_right.0" depart="0.00" departLane="W_in_0" departPos="108.38" departSpeed="2.63" departDelay="0.00" arrival="39.00" arrivalLane="S_out_0" arrivalPos="189.60" arrivalSpeed="10.97" duration="39.00" routeLength="279.85" waitingTime="6.00" waitingCount="1" stopTime="0.00" timeLoss="13.84" rerouteNo="0" devices="vehroute_flow_15_increasing_0_W_right.0 tripinfo_flow_15_increasing_0_W_right.0" vType="moto" speedFactor="0.85" vaporized=""/>
    <tripinfo id="flow_16_increasing_0_W_uturn.0" depart="0.00" departLane="W_in_0" departPos="126.68" departSpeed="11.71" departDelay="0.00" arrival="39.00" arrivalLane="W_out_1" arrivalPos="189.60" arrivalSpeed="14.32" duration="39.00" routeLength="257.19" waitingTime="12.00" waitingCount="1" stopTime="0.00" timeLoss="19.06" rerouteNo="0" devices="vehroute_flow_16_increasing_0_W_uturn.0 tripinfo_flow_16_increasing_0_W_uturn.0" vType="moto" speedFactor="1.04" vaporized=""/>
    <tripinfo id="flow_11_increasing_0_E_right.0" depart="0.00" departLane="E_in_1" departPos="144.95" departSpeed="4.02" departDelay="0.00" arrival="41.00" arrivalLane="N_out_0" arrivalPos="189.60" arrivalSpeed="13.03" duration="41.00" routeLength="243.28" waitingTime="11.00" waitingCount="1" stopTime="0.00" timeLoss="21.88" rerouteNo="0" devices="vehroute_flow_11_increasing_0_E_right.0 tripinfo_flow_11_increasing_0_E_right.0" vType="bus" speedFactor="0.96" vaporized=""/>
    <tripinfo id="flow_13_increasing_0_W_straight.0" depart="0.00" departLane="W_in_0" departPos="24.53" departSpeed="3.97" departDelay="0.00" arrival="42.00" arrivalLane="E_out_0" arrivalPos="189.60" arrivalSpeed="11.31" duration="42.00" routeLength="375.47" waitingTime="0.00" waitingCount="0" stopTime="0.00" timeLoss="10.36" rerouteNo="0" devices="vehroute_flow_13_increasing_0_W_straight.0 tripinfo_flow_13_increasing_0_W_straight.0" vType="bus" speedFactor="0.86" vaporized=""/>
    <tripinfo id="flow_10_increasing_0_E_left.0" depart="0.00" departLane="E_in_0" departPos="44.88" departSpeed="8.19" departDelay="0.00" arrival="43.00" arrivalLane="S_out_1" arrivalPos="189.60" arrivalSpeed="14.14" duration="43.00" routeLength="353.67" waitingTime="7.00" waitingCount="2" stopTime="0.00" timeLoss="18.20" rerouteNo="0" devices="vehroute_flow_10_increasing_0_E_left.0 tripinfo_flow_10_increasing_0_E_left.0" vType="car" speedFactor="1.08" vaporized=""/>
    <tripinfo id="flow_12_increasing_0_E_uturn.0" depart="0.00" departLane="E_in_0" departPos="5.65" departSpeed="13.76" departDelay="0.00" arrival="44.00" arrivalLane="E_out_1" arrivalPos="189.60" arrivalSpeed="14.27" duration="44.00" routeLength="378.22" waitingTime="7.00" waitingCount="2" stopTime="0.00" timeLoss="16.85" rerouteNo="0" devices="vehroute_flow_12_increasing_0_E_uturn.0 tripinfo_flow_12_increasing_0_E_uturn.0" vType="moto" speedFactor="1.03" vaporized=""/>
    <tripinfo id="flow_1_increasing_0_N_straight.0" depart="0.00" departLane="N_in_0" departPos="8.62" departSpeed="8.51" departDelay="0.00" arrival="55.00" arrivalLane="S_out_0" arrivalPos="189.60" arrivalSpeed="11.26" duration="55.00" routeLength="391.38" waitingTime="11.00" waitingCount="1" stopTime="0.00" timeLoss="21.42" rerouteNo="0" devices="vehroute_flow_1_increasing_0_N_straight.0 tripinfo_flow_1_increasing_0_N_straight.0" vType="truck" speedFactor="0.86" vaporized=""/>
    <tripinfo id="flow_1_increasing_0_N_straight.1" depart="42.00" departLane="N_in_1" departPos="121.65" departSpeed="2.92" departDelay="0.12" arrival="63.00" arrivalLane="S_out_1" arrivalPos="189.60" arrivalSpeed="15.85" duration="21.00" routeLength="278.35" waitingTime="0.00" waitingCount="0" stopTime="0.00" timeLoss="2.82" rerouteNo="0" devices="vehroute_flow_1_increasing_0_N_straight.1 tripinfo_flow_1_increasing_0_N_straight.1" vType="moto" speedFactor="1.15" vaporized=""/>
    <tripinfo id="flow_13_increasing_0_W_straight.1" depart="41.00" departLane="W_in_1" departPos="31.93" departSpeed="9.28" departDelay="0.60" arrival="69.00" arrivalLane="E_out_1" arrivalPos="189.60" arrivalSpeed="15.35" duration="28.00" routeLength="368.07" waitingTime="0.00" waitingCount="0" stopTime="0.00" timeLoss="4.26" rerouteNo="0" devices="vehroute_flow_13_increasing_0_W_straight.1 tripinfo_flow_13_increasing_0_W_straight.1" vType="moto" speedFactor="1.19" vaporized=""/>
    <tripinfo id="flow_9_increasing_0_E_straight.1" depart="39.00" departLane="E_in_0" departPos="131.13" departSpeed="9.54" departDelay="0.54" arrival="71.00" arrivalLane="W_out_0" arrivalPos="189.60" arrivalSpeed="15.72" duration="32.00" routeLength="268.87" waitingTime="6.00" waitingCount="1" stopTime="0.00" timeLoss="14.65" rerouteNo="0" devices="vehroute_flow_9_increasing_0_E_straight.1 tripinfo_flow_9_increasing_0_E_straight.1" vType="moto" speedFactor="1.16" vaporized=""/>
    <tripinfo id="flow_5_increasing_0_S_straight.1" depart="40.00" departLane="N_in_1" departPos="58.36" departSpeed="11.64" departDelay="0.20" arrival="97.00" arrivalLane="W_out_0" arrivalPos="189.60" arrivalSpeed="11.55" duration="57.00" routeLength="329.87" waitingTime="20.00" waitingCount="1" stopTime="0.00" timeLoss="28.44" rerouteNo="0" devices="vehroute_flow_5_increasing_0_S_straight.1 tripinfo_flow_5_increasing_0_S_straight.1" vType="moto" speedFactor="0.87" vaporized=""/>
    <tripinfo id="flow_1_increasing_0_N_straight.2" depart="84.00" departLane="N_in_1" departPos="107.53" departSpeed="1.11" departDelay="0.23" arrival="110.00" arrivalLane="S_out_0" arrivalPos="189.60" arrivalSpeed="12.57" duration="26.00" routeLength="292.47" waitingTime="0.00" waitingCount="0" stopTime="0.00" timeLoss="3.33" rerouteNo="0" devices="vehroute_flow_1_increasing_0_N_straight.2 tripinfo_flow_1_increasing_0_N_straight.2" vType="moto" speedFactor="0.93" vaporized=""/>
    <tripinfo id="flow_5_increasing_0_S_straight.2" depart="80.00" departLane="N_in_1" departPos="12.70" departSpeed="12.41" departDelay="0.40" arrival="112.00" arrivalLane="W_out_0" arrivalPos="189.60" arrivalSpeed="13.27" duration="32.00" routeLength="375.53" waitingTime="0.00" waitingCount="0" stopTime="0.00" timeLoss="3.21" rerouteNo="0" devices="vehroute_flow_5_increasing_0_S_straight.2 tripinfo_flow_5_increasing_0_S_straight.2" vType="moto" speedFactor="0.96" vaporized=""/>
    <tripinfo id="flow_9_increasing_0_E_straight.2" depart="77.00" departLane="E_in_1" departPos="52.87" departSpeed="0.38" departDelay="0.08" arrival="118.00" arrivalLane="W_out_0" arrivalPos="189.60" arrivalSpeed="13.46" duration="41.00" routeLength="347.13" waitingTime="7.00" waitingCount="1" stopTime="0.00" timeLoss="15.33" rerouteNo="0" devices="vehroute_flow_9_increasing_0_E_straight.2 tripinfo_flow_9_increasing_0_E_straight.2" vType="moto" speedFactor="0.99" vaporized=""/>
    <tripinfo id="flow_13_increasing_0_W_straight.2" depart="81.00" departLane="W_in_1" departPos="59.51" departSpeed="13.32" departDelay="0.19" arrival="123.00" arrivalLane="E_out_0" arrivalPos="189.60" arrivalSpeed="13.39" duration="42.00" routeLength="340.49" waitingTime="4.00" waitingCount="1" stopTime="0.00" timeLoss="16.02" rerouteNo="0" devices="vehroute_flow_13_increasing_0_W_straight.2 tripinfo_flow_13_increasing_0_W_straight.2" vType="truck" speedFactor="0.97" vaporized=""/>
    <tripinfo id="flow_15_increasing_0_W_right.1" depart="99.00" departLane="W_in_1" departPos="128.68" departSpeed="3.06" departDelay="0.96" arrival="123.00" arrivalLane="S_out_0" arrivalPos="189.60" arrivalSpeed="13.22" duration="24.00" routeLength="259.55" waitingTime="0.00" waitingCount="0" stopTime="0.00" timeLoss="4.68" rerouteNo="0" devices="vehroute_flow_15_increasing_0_W_right.1 tripinfo_flow_15_increasing_0_W_right.1" vType="moto" speedFactor="1.04" vaporized=""/>
    <tripinfo id="flow_14_increasing_0_W_left.1" depart="100.00" departLane="W_in_0" departPos="69.24" departSpeed="6.06" departDelay="0.50" arrival="127.00" arrivalLane="N_out_1" arrivalPos="189.60" arrivalSpeed="13.33" duration="27.00" routeLength="329.31" waitingTime="0.00" waitingCount="0" stopTime="0.00" timeLoss="3.77" rerouteNo="0" devices="vehroute_flow_14_increasing_0_W_left.1 tripinfo_flow_14_increasing_0_W_left.1" vType="moto" speedFactor="1.05" vaporized=""/>
    <tripinfo id="flow_11_increasing_0_E_right.1" depart="102.00" departLane="E_in_1" departPos="118.54" departSpeed="10.72" departDelay="0.48" arrival="128.00" arrivalLane="N_out_0" arrivalPos="189.60" arrivalSpeed="11.85" duration="26.00" routeLength="269.69" waitingTime="0.00" waitingCount="0" stopTime="0.00" timeLoss="2.59" rerouteNo="0" devices="vehroute_flow_11_increasing_0_E_right.1 tripinfo_flow_11_increasing_0_E_right.1" vType="moto" speedFactor="0.88" vaporized=""/>
    <tripinfo id="flow_2_increasing_0_N_left.1" depart="98.00" departLane="N_in_0" departPos="8.88" departSpeed="2.82" departDelay="0.44" arrival="139.00" arrivalLane="E_out_1" arrivalPos="189.60" arrivalSpeed="15.07" duration="41.00" routeLength="389.67" waitingTime="7.00" waitingCount="1" stopTime="0.00" timeLoss="15.57" rerouteNo="0" devices="vehroute_flow_2_increasing_0_N_left.1 tripinfo_flow_2_increasing_0_N_left.1" vType="moto" speedFactor="1.12" vaporized=""/>
    <tripinfo id="flow_6_increasing_0_S_left.1" depart="100.00" departLane="S_in_0" departPos="156.52" departSpeed="9.22" departDelay="0.50" arrival="140.00" arrivalLane="W_out_1" arrivalPos="189.60" arrivalSpeed="13.93" duration="40.00" routeLength="242.03" waitingTime="16.00" waitingCount="1" stopTime="0.00" timeLoss="22.68" rerouteNo="0" devices="vehroute_flow_6_increasing_0_S_left.1 tripinfo_flow_6_increasing_0_S_left.1" vType="moto" speedFactor="1.08" vaporized=""/>
    <tripinfo id="flow_10_increasing_0_E_left.1" depart="102.00" departLane="E_in_1" departPos="57.40" departSpeed="0.26" departDelay="0.48" arrival="141.00" arrivalLane="S_out_0" arrivalPos="189.60" arrivalSpeed="9.86" duration="39.00" routeLength="341.15" waitingTime="0.00" waitingCount="0" stopTime="0.00" timeLoss="5.57" rerouteNo="0" devices="vehroute_flow_10_increasing_0_E_left.1 tripinfo_flow_10_increasing_0_E_left.1" vType="car" speedFactor="0.77" vaporized=""/>
    <tripinfo id="flow_5_increasing_0_S_straight.3" depart="120.00" departLane="N_in_1" departPos="77.94" departSpeed="4.43" departDelay="0.60" arrival="148.00" arrivalLane="W_out_1" arrivalPos="189.60" arrivalSpeed="14.02" duration="28.00" routeLength="310.29" waitingTime="0.00" waitingCount="0" stopTime="0.00" timeLoss="5.84" rerouteNo="0" devices="vehroute_flow_5_increasing_0_S_straight.3 tripinfo_flow_5_increasing_0_S_straight.3" vType="moto" speedFactor="1.08" vaporized=""/>
    <tripinfo id="flow_3_increasing_0_N_right.1" depart="105.00" departLane="N_in_1" departPos="134.76" departSpeed="6.26" departDelay="0.83" arrival="149.00" arrivalLane="W_out_0" arrivalPos="189.60" arrivalSpeed="12.55" duration="44.00" routeLength="253.47" waitingTime="9.00" waitingCount="1" stopTime="0.00" timeLoss="22.79" rerouteNo="0" devices="vehroute_flow_3_increasing_0_N_right.1 tripinfo_flow_3_increasing_0_N_right.1" vType="container" speedFactor="0.91" vaporized=""/>
    <tripinfo id="flow_7_increasing_0_S_right.1" depart="98.00" departLane="S_in_1" departPos="66.71" departSpeed="7.87" departDelay="0.44" arrival="151.00" arrivalLane="E_out_0" arrivalPos="189.60" arrivalSpeed="10.43" duration="53.00" routeLength="321.52" waitingTime="10.00" waitingCount="1" stopTime="0.00" timeLoss="21.77" rerouteNo="0" devices="vehroute_flow_7_increasing_0_S_right.1 tripinfo_flow_7_increasing_0_S_right.1" vType="container" speedFactor="0.78" vaporized=""/>
    <tripinfo id="flow_13_increasing_0_W_straight.3" depart="122.00" departLane="W_in_0" departPos="19.25" departSpeed="11.19" departDelay="0.79" arrival="153.00" arrivalLane="E_out_0" arrivalPos="189.60" arrivalSpeed="14.90" duration="31.00" routeLength="380.75" waitingTime="0.00" waitingCount="0" stopTime="0.00" timeLoss="6.62" rerouteNo="0" devices="vehroute_flow_13_increasing_0_W_straight.3 tripinfo_flow_13_increasing_0_W_straight.3" vType="moto" speedFactor="1.20" vaporized=""/>
    <tripinfo id="flow_9_increasing_0_E_straight.3" depart="116.00" departLane="E_in_1" departPos="108.76" departSpeed="10.34" departDelay="0.61" arrival="160.00" arrivalLane="W_out_0" arrivalPos="189.60" arrivalSpeed="11.12" duration="44.00" routeLength="291.24" waitingTime="9.00" waitingCount="1" stopTime="0.00" timeLoss="18.95" rerouteNo="0" devices="vehroute_flow_9_increasing_0_E_straight.3 tripinfo_flow_9_increasing_0_E_straight.3" vType="truck" speedFactor="0.85" vaporized=""/>
    <tripinfo id="flow_1_increasing_0_N_straight.3" depart="126.00" departLane="N_in_0" departPos="53.32" departSpeed="9.73" departDelay="0.35" arrival="177.00" arrivalLane="S_out_0" arrivalPos="189.60" arrivalSpeed="14.50" duration="51.00" routeLength="346.68" waitingTime="19.00" waitingCount="1" stopTime="0.00" timeLoss="26.47" rerouteNo="0" devices="vehroute_flow_1_increasing_0_N_straight.3 tripinfo_flow_1_increasing_0_N_straight.3" vType="moto" speedFactor="1.06" vaporized=""/>
    <tripinfo id="flow_1_increasing_0_N_straight.4" depart="168.00" departLane="N_in_1" departPos="160.30" departSpeed="13.08" departDelay="0.46" arrival="188.00" arrivalLane="S_out_1" arrivalPos="189.60" arrivalSpeed="13.21" duration="20.00" routeLength="239.70" waitingTime="0.00" waitingCount="0" stopTime="0.00" timeLoss="1.14" rerouteNo="0" devices="vehroute_flow_1_increasing_0_N_straight.4 tripinfo_flow_1_increasing_0_N_straight.4" vType="car" speedFactor="0.96" vaporized=""/>
    <tripinfo id="flow_5_increasing_0_S_straight.4" depart="160.00" departLane="N_in_0" departPos="70.46" departSpeed="11.90" departDelay="0.80" arrival="190.00" arrivalLane="W_out_0" arrivalPos="189.60" arrivalSpeed="12.88" duration="30.00" routeLength="317.77" waitingTime="0.00" waitingCount="0" stopTime="0.00" timeLoss="5.08" rerouteNo="0" devices="vehroute_flow_5_increasing_0_S_straight.4 tripinfo_flow_5_increasing_0_S_straight.4" vType="container" speedFactor="0.97" vaporized=""/>
    <tripinfo id="flow_9_increasing_0_E_straight.4" depart="154.00" departLane="E_in_0" departPos="135.24" departSpeed="1.65" departDelay="0.15" arrival="205.00" arrivalLane="W_out_0" arrivalPos="189.60" arrivalSpeed="12.91" duration="51.00" routeLength="264.76" waitingTime="14.00" waitingCount="1" stopTime="0.00" timeLoss="30.58" rerouteNo="0" devices="vehroute_flow_9_increasing_0_E_straight.4 tripinfo_flow_9_increasing_0_E_straight.4" vType="bus" speedFactor="0.95" vaporized=""/>
    <tripinfo id="flow_13_increasing_0_W_straight.4" depart="162.00" departLane="W_in_1" departPos="74.07" departSpeed="0.51" departDelay="0.38" arrival="206.00" arrivalLane="E_out_0" arrivalPos="189.60" arrivalSpeed="11.62" duration="44.00" routeLength="325.93" waitingTime="0.00" waitingCount="0" stopTime="0.00" timeLoss="16.21" rerouteNo="0" devices="vehroute_flow_13_increasing_0_W_straight.4 tripinfo_flow_13_increasing_0_W_straight.4" vType="truck" speedFactor="0.87" vaporized=""/>
    <tripinfo id="flow_9_increasing_0_E_straight.5" depart="193.00" departLane="E_in_1" departPos="111.69" departSpeed="5.97" departDelay="0.69" arrival="216.00" arrivalLane="W_out_1" arrivalPos="189.60" arrivalSpeed="13.02" duration="23.00" routeLength="288.31" waitingTime="0.00" waitingCount="0" stopTime="0.00" timeLoss="1.54" rerouteNo="0" devices="vehroute_flow_9_increasing_0_E_straight.5 tripinfo_flow_9_increasing_0_E_straight.5" vType="moto" speedFactor="1.00" vaporized=""/>
    <tripinfo id="flow_4_increasing_0_N_uturn.1" depart="192.00" departLane="N_in_1" departPos="65.33" departSpeed="12.93" departDelay="0.61" arrival="222.00" arrivalLane="N_out_1" arrivalPos="189.60" arrivalSpeed="14.29" duration="30.00" routeLength="318.54" waitingTime="0.00" waitingCount="0" stopTime="0.00" timeLoss="6.46" rerouteNo="0" devices="vehroute_flow_4_increasing_0_N_uturn.1 tripinfo_flow_4_increasing_0_N_uturn.1" vType="moto" speedFactor="1.03" vaporized=""/>
    <tripinfo id="flow_7_increasing_0_S_right.2" depart="196.00" departLane="S_in_0" departPos="155.68" departSpeed="8.80" departDelay="0.88" arrival="223.00" arrivalLane="E_out_0" arrivalPos="189.60" arrivalSpeed="12.72" duration="27.00" routeLength="232.55" waitingTime="4.00" waitingCount="1" stopTime="0.00" timeLoss="9.20" rerouteNo="0" devices="vehroute_flow_7_increasing_0_S_right.2 tripinfo_flow_7_increasing_0_S_right.2" vType="car" speedFactor="0.99" vaporized=""/>
    <tripinfo id="flow_5_increasing_0_S_straight.5" depart="200.00" departLane="N_in_1" departPos="151.29" departSpeed="2.18" departDelay="1.00" arrival="223.00" arrivalLane="W_out_0" arrivalPos="189.60" arrivalSpeed="12.45" duration="23.00" routeLength="236.94" waitingTime="0.00" waitingCount="0" stopTime="0.00" timeLoss="3.86" rerouteNo="0" devices="vehroute_flow_5_increasing_0_S_straight.5 tripinfo_flow_5_increasing_0_S_straight.5" vType="moto" speedFactor="0.94" vaporized=""/>
    <tripinfo id="flow_16_increasing_0_W_uturn.1" depart="195.00" departLane="W_in_1" departPos="129.09" departSpeed="6.03" departDelay="0.83" arrival="233.00" arrivalLane="W_out_1" arrivalPos="189.60" arrivalSpeed="15.89" duration="38.00" routeLength="254.78" waitingTime="14.00" waitingCount="1" stopTime="0.00" timeLoss="21.43" rerouteNo="0" devices="vehroute_flow_16_increasing_0_W_uturn.1 tripinfo_flow_16_increasing_0_W_uturn.1" vType="moto" speedFactor="1.14" vaporized=""/>
    <tripinfo id="flow_2_increasing_0_N_left.2" depart="196.00" departLane="N_in_1" departPos="19.51" departSpeed="7.16" departDelay="0.88" arrival="233.00" arrivalLane="E_out_1" arrivalPos="189.60" arrivalSpeed="12.38" duration="37.00" routeLength="379.04" waitingTime="0.00" waitingCount="0" stopTime="0.00" timeLoss="5.83" rerouteNo="0" devices="vehroute_flow_2_increasing_0_N_left.2 tripinfo_flow_2_increasing_0_N_left.2" vType="container" speedFactor="0.90" vaporized=""/>
    <tripinfo id="flow_11_increasing_0_E_right.2" depart="204.00" departLane="E_in_1" departPos="148.65" departSpeed="7.04" departDelay="0.95" arrival="235.00" arrivalLane="N_out_0" arrivalPos="189.60" arrivalSpeed="13.67" duration="31.00" routeLength="239.58" waitingTime="7.00" waitingCount="1" stopTime="0.00" timeLoss="13.03" rerouteNo="0" devices="vehroute_flow_11_increasing_0_E_right.2 tripinfo_flow_11_increasing_0_E_right.2" vType="moto" speedFactor="1.04" vaporized=""/>
    <tripinfo id="flow_15_increasing_0_W_right.2" depart="197.00" departLane="W_in_1" departPos="2.77" departSpeed="7.27" departDelay="0.92" arrival="236.00" arrivalLane="S_out_0" arrivalPos="189.60" arrivalSpeed="13.02" duration="39.00" routeLength="385.46" waitingTime="2.00" waitingCount="1" stopTime="0.00" timeLoss="8.98" rerouteNo="0" devices="vehroute_flow_15_increasing_0_W_right.2 tripinfo_flow_15_increasing_0_W_right.2" vType="moto" speedFactor="0.95" vaporized=""/>
    <tripinfo id="flow_13_increasing_0_W_straight.5" depart="203.00" departLane="W_in_0" departPos="21.68" departSpeed="13.48" departDelay="0.98" arrival="237.00" arrivalLane="E_out_0" arrivalPos="189.60" arrivalSpeed="13.95" duration="34.00" routeLength="378.32" waitingTime="0.00" waitingCount="0" stopTime="0.00" timeLoss="7.89" rerouteNo="0" devices="vehroute_flow_13_increasing_0_W_straight.5 tripinfo_flow_13_increasing_0_W_straight.5" vType="moto" speedFactor="1.07" vaporized=""/>
    <tripinfo id="flow_10_increasing_0_E_left.2" depart="204.00" departLane="E_in_1" departPos="74.60" departSpeed="13.00" departDelay="0.95" arrival="239.00" arrivalLane="S_out_1" arrivalPos="189.60" arrivalSpeed="15.21" duration="35.00" routeLength="323.95" waitingTime="5.00" waitingCount="1" stopTime="0.00" timeLoss="13.17" rerouteNo="0" devices="vehroute_flow_10_increasing_0_E_left.2 tripinfo_flow_10_increasing_0_E_left.2" vType="moto" speedFactor="1.14" vaporized=""/>
    <tripinfo id="flow_12_increasing_0_E_uturn.1" depart="198.00" departLane="E_in_0" departPos="91.52" departSpeed="10.95" departDelay="0.96" arrival="240.00" arrivalLane="E_out_1" arrivalPos="189.60" arrivalSpeed="11.39" duration="42.00" routeLength="292.35" waitingTime="9.00" waitingCount="2" stopTime="0.00" timeLoss="17.13" rerouteNo="0" devices="vehroute_flow_12_increasing_0_E_uturn.1 tripinfo_flow_12_increasing_0_E_uturn.1" vType="moto" speedFactor="0.89" vaporized=""/>
    <tripinfo id="flow_14_increasing_0_W_left.2" depart="200.00" departLane="W_in_0" departPos="2.21" departSpeed="11.85" departDelay="1.00" arrival="240.00" arrivalLane="N_out_1" arrivalPos="189.60" arrivalSpeed="11.74" duration="40.00" routeLength="396.34" waitingTime="0.00" waitingCount="0" stopTime="0.00" timeLoss="7.75" rerouteNo="0" devices="vehroute_flow_14_increasing_0_W_left.2 tripinfo_flow_14_increasing_0_W_left.2" vType="car" speedFactor="0.93" vaporized=""/>
    <tripinfo id="flow_1_increasing_0_N_straight.5" depart="210.00" departLane="N_in_1" departPos="84.66" departSpeed="2.35" departDelay="0.58" arrival="248.00" arrivalLane="S_out_0" arrivalPos="189.60" arrivalSpeed="14.66" duration="38.00" routeLength="315.34" waitingTime="8.00" waitingCount="1" stopTime="0.00" timeLoss="16.96" rerouteNo="0" devices="vehroute_flow_1_increasing_0_N_straight.5 tripinfo_flow_1_increasing_0_N_straight.5" vType="moto" speedFactor="1.10" vaporized=""/>
    <tripinfo id="flow_3_increasing_0_N_right.2" depart="209.00" departLane="N_in_0" departPos="63.10" departSpeed="10.58" departDelay="0.67" arrival="250.00" arrivalLane="W_out_0" arrivalPos="189.60" arrivalSpeed="11.39" duration="41.00" routeLength="325.13" waitingTime="7.00" waitingCount="1" stopTime="0.00" timeLoss="14.05" rerouteNo="0" devices="vehroute_flow_3_increasing_0_N_right.2 tripinfo_flow_3_increasing_0_N_right.2" vType="moto" speedFactor="0.90" vaporized=""/>
    <tripinfo id="flow_6_increasing_0_S_left.2" depart="200.00" departLane="S_in_0" departPos="0.16" departSpeed="4.83" departDelay="1.00" arrival="252.00" arrivalLane="W_out_1" arrivalPos="189.60" arrivalSpeed="13.66" duration="52.00" routeLength="398.39" waitingTime="13.00" waitingCount="2" stopTime="0.00" timeLoss="23.22" rerouteNo="0" devices="vehroute_flow_6_increasing_0_S_left.2 tripinfo_flow_6_increasing_0_S_left.2" vType="moto" speedFactor="1.03" vaporized=""/>
    <tripinfo id="flow_8_increasing_0_S_uturn.1" depart="211.00" departLane="S_in_1" departPos="84.30" departSpeed="9.02" departDelay="0.47" arrival="255.00" arrivalLane="S_out_1" arrivalPos="189.60" arrivalSpeed="11.72" duration="44.00" routeLength="299.57" waitingTime="10.00" waitingCount="2" stopTime="0.00" timeLoss="18.74" rerouteNo="0" devices="vehroute_flow_8_increasing_0_S_uturn.1 tripinfo_flow_8_increasing_0_S_uturn.1" vType="car" speedFactor="0.90" vaporized=""/>
    <tripinfo id="flow_5_increasing_0_S_straight.6" depart="239.00" departLane="N_in_0" departPos="149.69" departSpeed="1.98" departDelay="0.19" arrival="260.00" arrivalLane="W_out_0" arrivalPos="189.60" arrivalSpeed="14.41" duration="21.00" routeLength="238.54" waitingTime="0.00" waitingCount="0" stopTime="0.00" timeLoss="4.48" rerouteNo="0" devices="vehroute_flow_5_increasing_0_S_straight.6 tripinfo_flow_5_increasing_0_S_straight.6" vType="moto" speedFactor="1.10" vaporized=""/>
    <tripinfo id="flow_9_increasing_0_E_straight.6" depart="231.00" departLane="E_in_1" departPos="29.88" departSpeed="11.37" departDelay="0.23" arrival="273.00" arrivalLane="W_out_0" arrivalPos="189.60" arrivalSpeed="14.07" duration="42.00" routeLength="370.12" waitingTime="9.00" waitingCount="1" stopTime="0.00" timeLoss="15.02" rerouteNo="0" devices="vehroute_flow_9_increasing_0_E_straight.6 tripinfo_flow_9_increasing_0_E_straight.6" vType="moto" speedFactor="1.02" vaporized=""/>
    <tripinfo id="flow_13_increasing_0_W_straight.6" depart="243.00" departLane="W_in_0" departPos="42.85" departSpeed="1.32" departDelay="0.58" arrival="274.00" arrivalLane="E_out_0" arrivalPos="189.60" arrivalSpeed="12.26" duration="31.00" routeLength="357.15" waitingTime="0.00" waitingCount="0" stopTime="0.00" timeLoss="4.07" rerouteNo="0" devices="vehroute_flow_13_increasing_0_W_straight.6 tripinfo_flow_13_increasing_0_W_straight.6" vType="moto" speedFactor="0.97" vaporized=""/>