<?xml version="1.0" encoding="UTF-8"?>

<!-- generated on 2025-12-09 23:58:55 by Eclipse SUMO sumo Version 1.18.0
<configuration xmlns:xsi="http://www.w3.org/2001/XMLSchema-instance" xsi:noNamespaceSchemaLocation="http://sumo.dlr.de/xsd/sumoConfiguration.xsd">

    <input>
        <net-file value="/workspace/nets/120p4k/net.net.xml"/>
        <route-files value="/workspace/nets/120p4k/route_temp_830_125395600210432_23261340.rou.xml"/>
    </input>

    <output>
        <summary-output value="results/summary_ep_9.xml"/>
        <tripinfo-output value="results/tripinfo_ep_9.xml"/>
        <vehroute-output value="results/vehroute_ep_9.xml"/>
    </output>

    <time>
        <begin value="0"/>
    </time>

    <report>
        <verbose value="true"/>
        <no-step-log value="true"/>
    </report>

    <traci_server>
        <remote-port value="39851"/>
    </traci_server>

    <gui_only>
        <gui-settings-file value="/workspace/nets/120p4k/gui-settings.xml"/>
        <quit-on-end value="true"/>
    </gui_only>

</configuration>
-->

<tripinfos xmlns:xsi="http://www.w3.org/2001/XMLSchema-instance" xsi:noNamespaceSchemaLocation="http://sumo.dlr.de/xsd/tripinfo_file.xsd">
    <tripinfo id="flow_16_increasing_0_W_uturn.0" depart="0.00" departLane="S_in_0" departPos="126.68" departSpeed="11.71" departDelay="0.00" arrival="20.00" arrivalLane="N_out_0" arrivalPos="189.60" arrivalSpeed="14.33" duration="20.00" routeLength="273.32" waitingTime="0.00" waitingCount="0" stopTime="0.00" timeLoss="0.74" rerouteNo="0" devices="vehroute_flow_16_increasing_0_W_uturn.0 tripinfo_flow_16_increasing_0_W_uturn.0" vType="moto" speedFactor="1.04" vaporized=""/>
    <tripinfo id="flow_3_increasing_0_N_right.0" depart="0.00" departLane="N_in_0" departPos="103.38" departSpeed="3.81" departDelay="0.00" arrival="24.00" arrivalLane="W_out_0" arrivalPos="189.60" arrivalSpeed="15.18" duration="24.00" routeLength="284.85" waitingTime="0.00" waitingCount="0" stopTime="0.00" timeLoss="4.41" rerouteNo="0" devices="vehroute_flow_3_increasing_0_N_right.0 tripinfo_flow_3_increasing_0_N_right.0" vType="moto" speedFactor="1.11" vaporized=""/>
    <tripinfo id="flow_8_increasing_0_S_uturn.0" depart="0.00" departLane="S_in_0" departPos="120.11" departSpeed="4.48" departDelay="0.00" arrival="24.00" arrivalLane="S_out_1" arrivalPos="189.60" arrivalSpeed="13.35" duration="24.00" routeLength="263.76" waitingTime="0.00" waitingCount="0" stopTime="0.00" timeLoss="4.89" rerouteNo="0" devices="vehroute_flow_8_increasing_0_S_uturn.0 tripinfo_flow_8_increasing_0_S_uturn.0" vType="moto" speedFactor="1.05" vaporized=""/>
    <tripinfo id="flow_5_increasing_0_S_straight.0" depart="0.00" departLane="S_in_1" departPos="107.37" departSpeed="7.21" departDelay="0.00" arrival="25.00" arrivalLane="N_out_1" arrivalPos="189.60" arrivalSpeed="14.91" duration="25.00" routeLength="292.63" waitingTime="0.00" waitingCount="0" stopTime="0.00" timeLoss="6.36" rerouteNo="0" devices="vehroute_flow_5_increasing_0_S_straight.0 tripinfo_flow_5_increasing_0_S_straight.0" vType="moto" speedFactor="1.15" vaporized=""/>
    <tripinfo id="flow_6_increasing_0_S_left.0" depart="0.00" departLane="S_in_1" departPos="166.01" departSpeed="0.74" departDelay="0.00" arrival="25.00" arrivalLane="W_out_1" arrivalPos="189.60" arrivalSpeed="11.97" duration="25.00" routeLength="232.54" waitingTime="0.00" waitingCount="0" stopTime="0.00" timeLoss="4.34" rerouteNo="0" devices="vehroute_flow_6_increasing_0_S_left.0 tripinfo_flow_6_increasing_0_S_left.0" vType="moto" speedFactor="0.88" vaporized=""/>
    <tripinfo id="flow_9_increasing_0_E_straight.0" depart="0.00" departLane="N_in_0" departPos="168.29" departSpeed="10.73" departDelay="0.00" arrival="32.00" arrivalLane="N_out_1" arrivalPos="189.60" arrivalSpeed="12.29" duration="32.00" routeLength="215.58" waitingTime="9.00" waitingCount="1" stopTime="0.00" timeLoss="14.13" rerouteNo="0" devices="vehroute_flow_9_increasing_0_E_straight.0 tripinfo_flow_9_increasing_0_E_straight.0" vType="car" speedFactor="0.94" vaporized=""/>
    <tripinfo id="flow_14_increasing_0_W_left.0" depart="0.00" departLane="W_in_1" departPos="182.88" departSpeed="5.61" departDelay="0.00" arrival="36.00" arrivalLane="N_out_1" arrivalPos="189.60" arrivalSpeed="13.32" duration="36.00" routeLength="215.67" waitingTime="14.00" waitingCount="1" stopTime="0.00" timeLoss="20.01" rerouteNo="0" devices="vehroute_flow_14_increasing_0_W_left.0 tripinfo_flow_14_increasing_0_W_left.0" vType="moto" speedFactor="1.01" vaporized=""/>
    <tripinfo id="flow_4_increasing_0_N_uturn.0" depart="0.00" departLane="W_in_1" departPos="127.60" departSpeed="0.08" departDelay="0.00" arrival="39.00" arrivalLane="E_out_0" arrivalPos="189.60" arrivalSpeed="11.97" duration="39.00" routeLength="272.40" waitingTime="7.00" waitingCount="1" stopTime="0.00" timeLoss="17.27" rerouteNo="0" devices="vehroute_flow_4_increasing_0_N_uturn.0 tripinfo_flow_4_increasing_0_N_uturn.0" vType="moto" speedFactor="0.91" vaporized=""/>
    <tripinfo id="flow_15_increasing_0_W_right.0" depart="0.00" departLane="W_in_0" departPos="108.38" departSpeed="2.63" departDelay="0.00" arrival="39.00" arrivalLane="S_out_0" arrivalPos="189.60" arrivalSpeed="10.73" duration="39.00" routeLength="279.85" waitingTime="6.00" waitingCount="1" stopTime="0.00" timeLoss="13.76" rerouteNo="0" devices="vehroute_flow_15_increasing_0_W_right.0 tripinfo_flow_15_increasing_0_W_right.0" vType="moto" speedFactor="0.85" vaporized=""/>
    <tripinfo id="flow_11_increasing_0_E_right.0" depart="0.00" departLane="E_in_1" departPos="144.95" departSpeed="4.02" departDelay="0.00" arrival="40.00" arrivalLane="N_out_0" arrivalPos="189.60" arrivalSpeed="13.10" duration="40.00" routeLength="243.28" waitingTime="8.00" waitingCount="1" stopTime="0.00" timeLoss="20.29" rerouteNo="0" devices="vehroute_flow_11_increasing_0_E_right.0 tripinfo_flow_11_increasing_0_E_right.0" vType="bus" speedFactor="0.96" vaporized=""/>
    <tripinfo id="flow_13_increasing_0_W_straight.0" depart="0.00" departLane="W_in_0" departPos="24.53" departSpeed="3.97" departDelay="0.00" arrival="43.00" arrivalLane="E_out_1" arrivalPos="189.60" arrivalSpeed="11.83" duration="43.00" routeLength="375.47" waitingTime="0.00" waitingCount="0" stopTime="0.00" timeLoss="11.32" rerouteNo="0" devices="vehroute_flow_13_increasing_0_W_straight.0 tripinfo_flow_13_increasing_0_W_straight.0" vType="bus" speedFactor="0.86" vaporized=""/>
    <tripinfo id="flow_10_increasing_0_E_left.0" depart="0.00" departLane="E_in_0" departPos="44.88" departSpeed="8.19" departDelay="0.00" arrival="45.00" arrivalLane="S_out_1" arrivalPos="189.60" arrivalSpeed="14.14" duration="45.00" routeLength="353.67" waitingTime="9.00" waitingCount="2" stopTime="0.00" timeLoss="20.34" rerouteNo="0" devices="vehroute_flow_10_increasing_0_E_left.0 tripinfo_flow_10_increasing_0_E_left.0" vType="car" speedFactor="1.08" vaporized=""/>
    <tripinfo id="flow_2_increasing_0_N_left.0" depart="0.00" departLane="N_in_1" departPos="8.27" departSpeed="8.33" departDelay="0.00" arrival="49.00" arrivalLane="E_out_1" arrivalPos="189.60" arrivalSpeed="13.24" duration="49.00" routeLength="390.28" waitingTime="13.00" waitingCount="1" stopTime="0.00" timeLoss="20.37" rerouteNo="0" devices="vehroute_flow_2_increasing_0_N_left.0 tripinfo_flow_2_increasing_0_N_left.0" vType="moto" speedFactor="1.02" vaporized=""/>
    <tripinfo id="flow_7_increasing_0_S_right.0" depart="0.00" departLane="S_in_0" departPos="8.76" departSpeed="8.47" departDelay="0.00" arrival="54.00" arrivalLane="E_out_0" arrivalPos="189.60" arrivalSpeed="11.73" duration="54.00" routeLength="379.47" waitingTime="10.00" waitingCount="1" stopTime="0.00" timeLoss="22.42" rerouteNo="0" devices="vehroute_flow_7_increasing_0_S_right.0 tripinfo_flow_7_increasing_0_S_right.0" vType="bus" speedFactor="0.89" vaporized=""/>
    <tripinfo id="flow_1_increasing_0_N_straight.0" depart="0.00" departLane="N_in_0" departPos="8.62" departSpeed="8.51" departDelay="0.00" arrival="55.00" arrivalLane="S_out_0" arrivalPos="189.60" arrivalSpeed="11.68" duration="55.00" routeLength="391.38" waitingTime="11.00" waitingCount="1" stopTime="0.00" timeLoss="22.12" rerouteNo="0" devices="vehroute_flow_1_increasing_0_N_straight.0 tripinfo_flow_1_increasing_0_N_straight.0" vType="truck" speedFactor="0.86" vaporized=""/>
    <tripinfo id="flow_12_increasing_0_E_uturn.0" depart="0.00" departLane="E_in_0" departPos="5.65" departSpeed="13.76" departDelay="0.00" arrival="62.00" arrivalLane="E_out_1" arrivalPos="189.60" arrivalSpeed="13.85" duration="62.00" routeLength="378.22" waitingTime="24.00" waitingCount="2" stopTime="0.00" timeLoss="34.18" rerouteNo="0" devices="vehroute_flow_12_increasing_0_E_uturn.0 tripinfo_flow_12_increasing_0_E_uturn.0" vType="moto" speedFactor="1.03" vaporized=""/>
    <tripinfo id="flow_13_increasing_0_W_straight.1" depart="41.00" departLane="W_in_1" departPos="31.93" departSpeed="9.28" departDelay="0.60" arrival="66.00" arrivalLane="E_out_1" arrivalPos="189.60" arrivalSpeed="15.53" duration="25.00" routeLength="368.07" waitingTime="0.00" waitingCount="0" stopTime="0.00" timeLoss="1.31" rerouteNo="0" devices="vehroute_flow_13_increasing_0_W_straight.1 tripinfo_flow_13_increasing_0_W_straight.1" vType="moto" speedFactor="1.19" vaporized=""/>
    <tripinfo id="flow_9_increasing_0_E_straight.1" depart="39.00" departLane="N_in_0" departPos="131.13" departSpeed="9.54" departDelay="0.54" arrival="73.00" arrivalLane="N_out_1" arrivalPos="189.60" arrivalSpeed="15.72" duration="34.00" routeLength="252.74" waitingTime="11.00" waitingCount="1" stopTime="0.00" timeLoss="17.16" rerouteNo="0" devices="vehroute_flow_9_increasing_0_E_straight.1 tripinfo_flow_9_increasing_0_E_straight.1" vType="moto" speedFactor="1.16" vaporized=""/>
    <tripinfo id="flow_1_increasing_0_N_straight.1" depart="42.00" departLane="N_in_1" departPos="121.65" departSpeed="2.92" departDelay="0.12" arrival="74.00" arrivalLane="S_out_0" arrivalPos="189.60" arrivalSpeed="14.69" duration="32.00" routeLength="278.35" waitingTime="3.00" waitingCount="1" stopTime="0.00" timeLoss="13.89" rerouteNo="0" devices="vehroute_flow_1_increasing_0_N_straight.1 tripinfo_flow_1_increasing_0_N_straight.1" vType="moto" speedFactor="1.15" vaporized=""/>
    <tripinfo id="flow_5_increasing_0_S_straight.1" depart="40.00" departLane="S_in_1" departPos="58.36" departSpeed="11.64" departDelay="0.20" arrival="77.00" arrivalLane="N_out_0" arrivalPos="189.60" arrivalSpeed="11.23" duration="37.00" routeLength="341.64" waitingTime="3.00" waitingCount="1" stopTime="0.00" timeLoss="8.44" rerouteNo="0" devices="vehroute_flow_5_increasing_0_S_straight.1 tripinfo_flow_5_increasing_0_S_straight.1" vType="moto" speedFactor="0.87" vaporized=""/>
    <tripinfo id="flow_9_increasing_0_E_straight.2" depart="77.00" departLane="N_in_1" departPos="52.87" departSpeed="0.38" departDelay="0.08" arrival="110.00" arrivalLane="N_out_1" arrivalPos="189.60" arrivalSpeed="13.41" duration="33.00" routeLength="331.00" waitingTime="0.00" waitingCount="0" stopTime="0.00" timeLoss="7.69" rerouteNo="0" devices="vehroute_flow_9_increasing_0_E_straight.2 tripinfo_flow_9_increasing_0_E_straight.2" vType="moto" speedFactor="0.99" vaporized=""/>
    <tripinfo id="flow_13_increasing_0_W_straight.2" depart="81.00" departLane="W_in_1" departPos="59.51" departSpeed="13.32" departDelay="0.19" arrival="118.00" arrivalLane="E_out_0" arrivalPos="189.60" arrivalSpeed="13.01" duration="37.00" routeLength="340.49" waitingTime="1.00" waitingCount="1" stopTime="0.00" timeLoss="11.13" rerouteNo="0" devices="vehroute_flow_13_increasing_0_W_straight.2 tripinfo_flow_13_increasing_0_W_straight.2" vType="truck" speedFactor="0.97" vaporized=""/>
    <tripinfo id="flow_15_increasing_0_W_right.1" depart="99.00" departLane="W_in_1" departPos="128.68" departSpeed="3.06" departDelay="0.96" arrival="123.00" arrivalLane="S_out_0" arrivalPos="189.60" arrivalSpeed="13.31" duration="24.00" routeLength="259.55" waitingTime="0.00" waitingCount="0" stopTime="0.00" timeLoss="4.56" rerouteNo="0" devices="vehroute_flow_15_increasing_0_W_right.1 tripinfo_flow_15_increasing_0_W_right.1" vType="moto" speedFactor="1.04" vaporized=""/>
    <tripinfo id="flow_5_increasing_0_S_straight.2" depart="80.00" departLane="S_in_1" departPos="12.70" departSpeed="12.41" departDelay="0.40" arrival="128.00" arrivalLane="N_out_0" arrivalPos="189.60" arrivalSpeed="12.86" duration="48.00" routeLength="387.30" waitingTime="13.00" waitingCount="1" stopTime="0.00" timeLoss="18.46" rerouteNo="0" devices="vehroute_flow_5_increasing_0_S_straight.2 tripinfo_flow_5_increasing_0_S_straight.2" vType="moto" speedFactor="0.96" vaporized=""/>
    <tripinfo id="flow_1_increasing_0_N_straight.2" depart="84.00" departLane="N_in_1" departPos="107.53" departSpeed="1.11" departDelay="0.23" arrival="129.00" arrivalLane="S_out_0" arrivalPos="189.60" arrivalSpeed="12.17" duration="45.00" routeLength="292.47" waitingTime="11.00" waitingCount="1" stopTime="0.00" timeLoss="21.63" rerouteNo="0" devices="vehroute_flow_1_increasing_0_N_straight.2 tripinfo_flow_1_increasing_0_N_straight.2" vType="moto" speedFactor="0.93" vaporized=""/>
    <tripinfo id="flow_2_increasing_0_N_left.1" depart="98.00" departLane="N_in_0" departPos="8.88" departSpeed="2.82" departDelay="0.44" arrival="129.00" arrivalLane="E_out_1" arrivalPos="189.60" arrivalSpeed="15.02" duration="31.00" routeLength="389.67" waitingTime="0.00" waitingCount="0" stopTime="0.00" timeLoss="5.32" rerouteNo="0" devices="vehroute_flow_2_increasing_0_N_left.1 tripinfo_flow_2_increasing_0_N_left.1" vType="moto" speedFactor="1.12" vaporized=""/>
    <tripinfo id="flow_6_increasing_0_S_left.1" depart="100.00" departLane="S_in_0" departPos="156.52" departSpeed="9.22" departDelay="0.50" arrival="129.00" arrivalLane="W_out_1" arrivalPos="189.60" arrivalSpeed="14.90" duration="29.00" routeLength="242.03" waitingTime="5.00" waitingCount="2" stopTime="0.00" timeLoss="12.22" rerouteNo="0" devices="vehroute_flow_6_increasing_0_S_left.1 tripinfo_flow_6_increasing_0_S_left.1" vType="moto" speedFactor="1.08" vaporized=""/>
    <tripinfo id="flow_3_increasing_0_N_right.1" depart="105.00" departLane="N_in_1" departPos="134.76" departSpeed="6.26" departDelay="0.83" arrival="133.00" arrivalLane="W_out_0" arrivalPos="189.60" arrivalSpeed="12.55" duration="28.00" routeLength="253.47" waitingTime="0.00" waitingCount="0" stopTime="0.00" timeLoss="6.65" rerouteNo="0" devices="vehroute_flow_3_increasing_0_N_right.1 tripinfo_flow_3_increasing_0_N_right.1" vType="container" speedFactor="0.91" vaporized=""/>
    <tripinfo id="flow_7_increasing_0_S_right.1" depart="98.00" departLane="S_in_1" departPos="66.71" departSpeed="7.87" departDelay="0.44" arrival="134.00" arrivalLane="E_out_0" arrivalPos="189.60" arrivalSpeed="10.87" duration="36.00" routeLength="321.52" waitingTime="0.00" waitingCount="0" stopTime="0.00" timeLoss="5.61" rerouteNo="0" devices="vehroute_flow_7_increasing_0_S_right.1 tripinfo_flow_7_increasing_0_S_right.1" vType="container" speedFactor="0.78" vaporized=""/>
    <tripinfo id="flow_14_increasing_0_W_left.1" depart="100.00" departLane="W_in_0" departPos="69.24" departSpeed="6.06" departDelay="0.50" arrival="140.00" arrivalLane="N_out_1" arrivalPos="189.60" arrivalSpeed="14.17" duration="40.00" routeLength="329.31" waitingTime="8.00" waitingCount="1" stopTime="0.00" timeLoss="16.47" rerouteNo="0" devices="vehroute_flow_14_increasing_0_W_left.1 tripinfo_flow_14_increasing_0_W_left.1" vType="moto" speedFactor="1.05" vaporized=""/>
    <tripinfo id="flow_11_increasing_0_E_right.1" depart="102.00" departLane="E_in_1" departPos="118.54" departSpeed="10.72" departDelay="0.48" arrival="141.00" arrivalLane="N_out_0" arrivalPos="189.60" arrivalSpeed="11.85" duration="39.00" routeLength="269.69" waitingTime="10.00" waitingCount="1" stopTime="0.00" timeLoss="16.12" rerouteNo="0" devices="vehroute_flow_11_increasing_0_E_right.1 tripinfo_flow_11_increasing_0_E_right.1" vType="moto" speedFactor="0.88" vaporized=""/>
    <tripinfo id="flow_10_increasing_0_E_left.1" depart="102.00" departLane="E_in_1" departPos="57.40" departSpeed="0.26" departDelay="0.48" arrival="145.00" arrivalLane="S_out_0" arrivalPos="189.60" arrivalSpeed="10.36" duration="43.00" routeLength="341.15" waitingTime="2.00" waitingCount="1" stopTime="0.00" timeLoss="9.48" rerouteNo="0" devices="vehroute_flow_10_increasing_0_E_left.1 tripinfo_flow_10_increasing_0_E_left.1" vType="car" speedFactor="0.77" vaporized=""/>
    <tripinfo id="flow_5_increasing_0_S_straight.3" depart="120.00" departLane="S_in_1" departPos="77.94" departSpeed="4.43" departDelay="0.60" arrival="152.00" arrivalLane="N_out_0" arrivalPos="189.60" arrivalSpeed="14.27" duration="32.00" routeLength="322.06" waitingTime="2.00" waitingCount="1" stopTime="0.00" timeLoss="10.38" rerouteNo="0" devices="vehroute_flow_5_increasing_0_S_straight.3 tripinfo_flow_5_increasing_0_S_straight.3" vType="moto" speedFactor="1.08" vaporized=""/>
    <tripinfo id="flow_1_increasing_0_N_straight.3" depart="126.00" departLane="N_in_0" departPos="148.08" departSpeed="9.73" departDelay="0.35" arrival="153.00" arrivalLane="S_out_0" arrivalPos="189.60" arrivalSpeed="14.19" duration="27.00" routeLength="251.92" waitingTime="2.00" waitingCount="1" stopTime="0.00" timeLoss="8.96" rerouteNo="0" devices="vehroute_flow_1_increasing_0_N_straight.3 tripinfo_flow_1_increasing_0_N_straight.3" vType="moto" speedFactor="1.06" vaporized=""/>
    <tripinfo id="flow_9_increasing_0_E_straight.3" depart="116.00" departLane="N_in_1" departPos="108.76" departSpeed="10.34" departDelay="0.61" arrival="158.00" arrivalLane="N_out_0" arrivalPos="189.60" arrivalSpeed="11.06" duration="42.00" routeLength="275.11" waitingTime="8.00" waitingCount="1" stopTime="0.00" timeLoss="17.34" rerouteNo="0" devices="vehroute_flow_9_increasing_0_E_straight.3 tripinfo_flow_9_increasing_0_E_straight.3" vType="truck" speedFactor="0.85" vaporized=""/>
    <tripinfo id="flow_13_increasing_0_W_straight.3" depart="122.00" departLane="W_in_0" departPos="19.25" departSpeed="11.19" departDelay="0.79" arrival="165.00" arrivalLane="E_out_0" arrivalPos="189.60" arrivalSpeed="15.03" duration="43.00" routeLength="380.75" waitingTime="11.00" waitingCount="1" stopTime="0.00" timeLoss="18.43" rerouteNo="0" devices="vehroute_flow_13_increasing_0_W_straight.3 tripinfo_flow_13_increasing_0_W_straight.3" vType="moto" speedFactor="1.20" vaporized=""/>
    <tripinfo id="flow_1_increasing_0_N_straight.4" depart="168.00" departLane="N_in_0" departPos="185.47" departSpeed="9.03" departDelay="0.46" arrival="185.00" arrivalLane="S_out_0" arrivalPos="189.60" arrivalSpeed="12.90" duration="17.00" routeLength="214.53" waitingTime="0.00" waitingCount="0" stopTime="0.00" timeLoss="0.89" rerouteNo="0" devices="vehroute_flow_1_increasing_0_N_straight.4 tripinfo_flow_1_increasing_0_N_straight.4" vType="car" speedFactor="0.96" vaporized=""/>
    <tripinfo id="flow_5_increasing_0_S_straight.4" depart="160.00" departLane="S_in_0" departPos="167.23" departSpeed="1.90" departDelay="0.80" arrival="186.00" arrivalLane="N_out_0" arrivalPos="189.60" arrivalSpeed="13.01" duration="26.00" routeLength="232.77" waitingTime="0.00" waitingCount="0" stopTime="0.00" timeLoss="8.21" rerouteNo="0" devices="vehroute_flow_5_increasing_0_S_straight.4 tripinfo_flow_5_increasing_0_S_straight.4" vType="container" speedFactor="0.97" vaporized=""/>
    <tripinfo id="flow_9_increasing_0_E_straight.4" depart="154.00" departLane="N_in_1" departPos="23.57" departSpeed="9.43" departDelay="0.15" arrival="190.00" arrivalLane="N_out_1" arrivalPos="189.60" arrivalSpeed="12.64" duration="36.00" routeLength="360.30" waitingTime="0.00" waitingCount="0" stopTime="0.00" timeLoss="7.59" rerouteNo="0" devices="vehroute_flow_9_increasing_0_E_straight.4 tripinfo_flow_9_increasing_0_E_straight.4" vType="bus" speedFactor="0.95" vaporized=""/>
    <tripinfo id="flow_13_increasing_0_W_straight.4" depart="162.00" departLane="W_in_0" departPos="8.08" departSpeed="5.80" departDelay="0.38" arrival="198.00" arrivalLane="E_out_0" arrivalPos="189.60" arrivalSpeed="11.85" duration="36.00" routeLength="391.92" waitingTime="0.00" waitingCount="0" stopTime="0.00" timeLoss="2.68" rerouteNo="0" devices="vehroute_flow_13_increasing_0_W_straight.4 tripinfo_flow_13_increasing_0_W_straight.4" vType="truck" speedFactor="0.87" vaporized=""/>
    <tripinfo id="flow_4_increasing_0_N_uturn.1" depart="192.00" departLane="W_in_1" departPos="171.48" departSpeed="2.19" departDelay="0.61" arrival="218.00" arrivalLane="E_out_0" arrivalPos="189.60" arrivalSpeed="13.42" duration="26.00" routeLength="228.52" waitingTime="1.00" waitingCount="1" stopTime="0.00" timeLoss="9.77" rerouteNo="0" devices="vehroute_flow_4_increasing_0_N_uturn.1 tripinfo_flow_4_increasing_0_N_uturn.1" vType="moto" speedFactor="1.03" vaporized=""/>
    <tripinfo id="flow_12_increasing_0_E_uturn.1" depart="198.00" departLane="E_in_1" departPos="168.21" departSpeed="11.63" departDelay="0.96" arrival="221.00" arrivalLane="E_out_1" arrivalPos="189.60" arrivalSpeed="11.73" duration="23.00" routeLength="215.66" waitingTime="0.00" waitingCount="0" stopTime="0.00" timeLoss="3.61" rerouteNo="0" devices="vehroute_flow_12_increasing_0_E_uturn.1 tripinfo_flow_12_increasing_0_E_uturn.1" vType="moto" speedFactor="0.89" vaporized=""/>
    <tripinfo id="flow_15_increasing_0_W_right.2" depart="197.00" departLane="W_in_0" departPos="104.14" departSpeed="12.50" departDelay="0.92" arrival="222.00" arrivalLane="S_out_0" arrivalPos="189.60" arrivalSpeed="12.49" duration="25.00" routeLength="284.09" waitingTime="0.00" waitingCount="0" stopTime="0.00" timeLoss="2.90" rerouteNo="0" devices="vehroute_flow_15_increasing_0_W_right.2 tripinfo_flow_15_increasing_0_W_right.2" vType="moto" speedFactor="0.95" vaporized=""/>
    <tripinfo id="flow_14_increasing_0_W_left.2" depart="200.00" departLane="W_in_1" departPos="124.88" departSpeed="0.01" departDelay="1.00" arrival="228.00" arrivalLane="N_out_1" arrivalPos="189.60" arrivalSpeed="12.24" duration="28.00" routeLength="273.67" waitingTime="0.00" waitingCount="0" stopTime="0.00" timeLoss="5.33" rerouteNo="0" devices="vehroute_flow_14_increasing_0_W_left.2 tripinfo_flow_14_increasing_0_W_left.2" vType="car" speedFactor="0.93" vaporized=""/>
    <tripinfo id="flow_16_increasing_0_W_uturn.1" depart="195.00" departLane="S_in_0" departPos="71.94" departSpeed="4.41" departDelay="0.83" arrival="230.00" arrivalLane="N_out_1" arrivalPos="189.60" arrivalSpeed="14.99" duration="35.00" routeLength="328.06" waitingTime="5.00" waitingCount="1" stopTime="0.00" timeLoss="13.56" rerouteNo="0" devices="vehroute_flow_16_increasing_0_W_uturn.1 tripinfo_flow_16_increasing_0_W_uturn.1" vType="moto" speedFactor="1.14" vaporized=""/>
    <tripinfo id="flow_7_increasing_0_S_right.2" depart="196.00" departLane="S_in_0" departPos="121.56" departSpeed="11.75" departDelay="0.88" arrival="231.00" arrivalLane="E_out_0" arrivalPos="189.60" arrivalSpeed="12.45" duration="35.00" routeLength="266.67" waitingTime="8.00" waitingCount="1" stopTime="0.00" timeLoss="14.51" rerouteNo="0" devices="vehroute_flow_7_increasing_0_S_right.2 tripinfo_flow_7_increasing_0_S_right.2" vType="car" speedFactor="0.99" vaporized=""/>
    <tripinfo id="flow_3_increasing_0_N_right.2" depart="209.00" departLane="N_in_1" departPos="148.65" departSpeed="6.11" departDelay="0.67" arrival="233.00" arrivalLane="W_out_0" arrivalPos="189.60" arrivalSpeed="11.98" duration="24.00" routeLength="239.58" waitingTime="0.00" waitingCount="0" stopTime="0.00" timeLoss="3.29" rerouteNo="0" devices="vehroute_flow_3_increasing_0_N_right.2 tripinfo_flow_3_increasing_0_N_right.2" vType="moto" speedFactor="0.90" vaporized=""/>
    <tripinfo id="flow_1_increasing_0_N_straight.5" depart="210.00" departLane="N_in_0" departPos="63.10" departSpeed="12.95" departDelay="0.58" arrival="233.00" arrivalLane="S_out_0" arrivalPos="189.60" arrivalSpeed="15.06" duration="23.00" routeLength="336.90" waitingTime="0.00" waitingCount="0" stopTime="0.00" timeLoss="1.02" rerouteNo="0" devices="vehroute_flow_1_increasing_0_N_straight.5 tripinfo_flow_1_increasing_0_N_straight.5" vType="moto" speedFactor="1.10" vaporized=""/>
    <tripinfo id="flow_5_increasing_0_S_straight.5" depart="200.00" departLane="S_in_0" departPos="31.76" departSpeed="11.77" departDelay="1.00" arrival="234.00" arrivalLane="N_out_0" arrivalPos="189.60" arrivalSpeed="11.75" duration="34.00" routeLength="368.24" waitingTime="0.00" waitingCount="0" stopTime="0.00" timeLoss="4.96" rerouteNo="0" devices="vehroute_flow_5_increasing_0_S_straight.5 tripinfo_flow_5_increasing_0_S_straight.5" vType="moto" speedFactor="0.94" vaporized=""/>
    <tripinfo id="flow_9_increasing_0_E_straight.5" depart="193.00" departLane="N_in_0" departPos="81.69" departSpeed="9.19" departDelay="0.69" arrival="236.00" arrivalLane="N_out_1" arrivalPos="189.60" arrivalSpeed="13.46" duration="43.00" routeLength="302.18" waitingTime="11.00" waitingCount="2" stopTime="0.00" timeLoss="19.53" rerouteNo="0" devices="vehroute_flow_9_increasing_0_E_straight.5 tripinfo_flow_9_increasing_0_E_straight.5" vType="moto" speedFactor="1.00" vaporized=""/>
    <tripinfo id="flow_6_increasing_0_S_left.2" depart="200.00" departLane="S_in_1" departPos="89.17" departSpeed="11.39" departDelay="1.00" arrival="238.00" arrivalLane="W_out_1" arrivalPos="189.60" arrivalSpeed="13.50" duration="38.00" routeLength="309.38" waitingTime="5.00" waitingCount="2" stopTime="0.00" timeLoss="15.22" rerouteNo="0" devices="vehroute_flow_6_increasing_0_S_left.2 tripinfo_flow_6_increasing_0_S_left.2" vType="moto" speedFactor="1.03" vaporized=""/>
    <tripinfo id="flow_11_increasing_0_E_right.2" depart="204.00" departLane="E_in_1" departPos="74.60" departSpeed="11.83" departDelay="0.95" arrival="243.00" arrivalLane="N_out_0" arrivalPos="189.60" arrivalSpeed="13.29" duration="39.00" routeLength="313.63" waitingTime="9.00" waitingCount="1" stopTime="0.00" timeLoss="16.70" rerouteNo="0" devices="vehroute_flow_11_increasing_0_E_right.2 tripinfo_flow_11_increasing_0_E_right.2" vType="moto" speedFactor="1.04" vaporized=""/>
    <tripinfo id="flow_13_increasing_0_W_straight.5" depart="203.00" departLane="W_in_1" departPos="92.22" departSpeed="0.17" departDelay="0.98" arrival="244.00" arrivalLane="E_out_0" arrivalPos="189.60" arrivalSpeed="14.06" duration="41.00" routeLength="307.78" waitingTime="9.00" waitingCount="1" stopTime="0.00" timeLoss="19.49" rerouteNo="0" devices="vehroute_flow_13_increasing_0_W_straight.5 tripinfo_flow_13_increasing_0_W_straight.5" vType="moto" speedFactor="1.07" vaporized=""/>
    <tripinfo id="flow_2_increasing_0_N_left.2" depart="196.00" departLane="N_in_1" departPos="108.70" departSpeed="7.40" departDelay="0.88" arrival="246.00" arrivalLane="E_out_1" arrivalPos="189.60" arrivalSpeed="12.44" duration="50.00" routeLength="289.85" waitingTime="7.00" waitingCount="2" stopTime="0.00" timeLoss="25.18" rerouteNo="0" devices="vehroute_flow_2_increasing_0_N_left.2 tripinfo_flow_2_increasing_0_N_left.2" vType="container" speedFactor="0.90" vaporized=""/>
    <tripinfo id="flow_10_increasing_0_E_left.2" depart="204.00" departLane="E_in_1" departPos="21.68" departSpeed="6.53" departDelay="0.95" arrival="247.00" arrivalLane="S_out_1" arrivalPos="189.60" arrivalSpeed="14.77" duration="43.00" routeLength="376.87" waitingTime="8.00" waitingCount="2" stopTime="0.00" timeLoss="17.93" rerouteNo="0" devices="vehroute_flow_10_increasing_0_E_left.2 tripinfo_flow_10_increasing_0_E_left.2" vType="moto" speedFactor="1.14" vaporized=""/>
    <tripinfo id="flow_8_increasing_0_S_uturn.1" depart="211.00" departLane="S_in_1" departPos="84.66" departSpeed="1.91" departDelay="0.47" arrival="258.00" arrivalLane="S_out_1" arrivalPos="189.60" arrivalSpeed="12.10" duration="47.00" routeLength="299.21" waitingTime="15.00" waitingCount="1" stopTime="0.00" timeLoss="21.65" rerouteNo="0" devices="vehroute_flow_8_increasing_0_S_uturn.1 tripinfo_flow_8_increasing_0_S_uturn.1" vType="car" speedFactor="0.90" vaporized=""/>
    <tripinfo id="flow_9_increasing_0_E_straight.6" depart="231.00" departLane="N_in_1" departPos="84.30" departSpeed="10.26" departDelay="0.23" arrival="258.00" arrivalLane="N_out_1" arrivalPos="189.60" arrivalSpeed="13.32" duration="27.00" routeLength="299.57" waitingTime="0.00" waitingCount="0" stopTime="0.00" timeLoss="4.50" rerouteNo="0" devices="vehroute_flow_9_increasing_0_E_straight.6 tripinfo_flow_9_increasing_0_E_straight.6" vType="moto" speedFactor="1.02" vaporized=""/>
    <tripinfo id="flow_13_increasing_0_W_straight.6" depart="243.00" departLane="W_in_0" departPos="149.69" departSpeed="1.75" departDelay="0.58" arrival="271.00" arrivalLane="E_out_0" arrivalPos="189.60" arrivalSpeed="13.41" duration="28.00" routeLength="250.31" waitingTime="0.00" waitingCount="0" stopTime="0.00" timeLoss="8.70" rerouteNo="0" devices="vehroute_flow_13_increasing_0_W_straight.6 tripinfo_flow_13_increasing_0_W_straight.6" vType="moto" speedFactor="0.97" vaporized=""/>
    <tripinfo id="flow_5_increasing_0_S_straight.6" depart="239.00" departLane="S_in_1" departPos="29.88" departSpeed="12.24" departDelay="0.19" arrival="282.00" arrivalLane="N_out_0" arrivalPos="189.60" arrivalSpeed="14.66" duration="43.00" routeLength="370.12" waitingTime="11.00" waitingCount="1" stopTime="0.00" timeLoss="18.36" rerouteNo="0" devices="vehroute_flow_5_increasing_0_S_straight.6 tripinfo_flow_5_increasing_0_S_straight.6" vType="moto" speedFactor="1.10" vaporized=""/>