<?xml version="1.0" encoding="UTF-8"?>

<!-- generated on 2025-12-09 23:52:17 by Eclipse SUMO sumo Version 1.18.0
<configuration xmlns:xsi="http://www.w3.org/2001/XMLSchema-instance" xsi:noNamespaceSchemaLocation="http://sumo.dlr.de/xsd/sumoConfiguration.xsd">

    <input>
        <net-file value="/workspace/nets/120p4k/net.net.xml"/>
        <route-files value="/workspace/nets/120p4k/route_temp_830_125395600210432_23261340.rou.xml"/>
    </input>

    <output>
        <summary-output value="results/summary_ep_2.xml"/>
        <tripinfo-output value="results/tripinfo_ep_2.xml"/>
        <vehroute-output value="results/vehroute_ep_2.xml"/>
    </output>

    <time>
        <begin value="0"/>
    </time>

    <report>
        <verbose value="true"/>
        <no-step-log value="true"/>
    </report>

    <traci_server>
        <remote-port value="42371"/>
    </traci_server>

    <gui_only>
        <gui-settings-file value="/workspace/nets/120p4k/gui-settings.xml"/>
        <quit-on-end value="true"/>
    </gui_only>

</configuration>
-->

<routes xmlns:xsi="http://www.w3.org/2001/XMLSchema-instance" xsi:noNamespaceSchemaLocation="http://sumo.dlr.de/xsd/routes_file.xsd">
    <vehicle id="flow_5_increasing_0_S_straight.0" type="moto" depart="0.00" departLane="1" departPos="107.3659" departSpeed="7.2113" speedFactor="1.1475" arrival="22.00">
        <route edges="N_in W_out"/>
    </vehicle>

    <vehicle id="flow_3_increasing_0_N_right.0" type="moto" depart="0.00" departLane="0" departPos="103.3842" departSpeed="3.8146" speedFactor="1.1088" arrival="25.00">
        <route edges="N_in W_out"/>
    </vehicle>

    <vehicle id="flow_6_increasing_0_S_left.0" type="moto" depart="0.00" departLane="1" departPos="166.0107" departSpeed="0.7376" speedFactor="0.8806" arrival="25.00">
        <route edges="S_in W_out"/>
    </vehicle>

    <vehicle id="flow_8_increasing_0_S_uturn.0" type="moto" depart="0.00" departLane="0" departPos="120.1072" departSpeed="4.4837" speedFactor="1.0505" arrival="25.00">
        <route edges="S_in S_out"/>
    </vehicle>

    <vehicle id="flow_4_increasing_0_N_uturn.0" type="moto" depart="0.00" departLane="1" departPos="127.6015" departSpeed="0.0761" speedFactor="0.9074" arrival="28.00">
        <route edges="N_in N_out"/>
    </vehicle>

    <vehicle id="flow_2_increasing_0_N_left.0" type="moto" depart="0.00" departLane="1" departPos="8.2688" departSpeed="8.3291" speedFactor="1.0157" arrival="31.00">
        <route edges="N_in E_out"/>
    </vehicle>

    <vehicle id="flow_7_increasing_0_S_right.0" type="bus" depart="0.00" departLane="0" departPos="8.759" departSpeed="8.4712" speedFactor="0.8915" arrival="36.00">
        <route edges="S_in E_out"/>
    </vehicle>

    <vehicle id="flow_9_increasing_0_E_straight.0" type="car" depart="0.00" departLane="0" departPos="168.2937" departSpeed="10.7269" speedFactor="0.9362" arrival="37.00">
        <route edges="E_in W_out"/>
    </vehicle>

    <vehicle id="flow_14_increasing_0_W_left.0" type="moto" depart="0.00" departLane="1" departPos="182.8773" departSpeed="5.6108" speedFactor="1.0101" arrival="39.00">
        <route edges="W_in N_out"/>
    </vehicle>

    <vehicle id="flow_15_increasing_0_W_right.0" type="moto" depart="0.00" departLane="0" departPos="108.377" departSpeed="2.6276" speedFactor="0.8472" arrival="39.00">
        <route edges="W_in S_out"/>
    </vehicle>

    <vehicle id="flow_16_increasing_0_W_uturn.0" type="moto" depart="0.00" departLane="0" departPos="126.6766" departSpeed="11.7148" speedFactor="1.0383" arrival="39.00">
        <route edges="W_in W_out"/>
    </vehicle>

    <vehicle id="flow_11_increasing_0_E_right.0" type="bus" depart="0.00" departLane="1" departPos="144.9496" departSpeed="4.0187" speedFactor="0.9581" arrival="41.00">
        <route edges="E_in N_out"/>
    </vehicle>

    <vehicle id="flow_13_increasing_0_W_straight.0" type="bus" depart="0.00" departLane="0" departPos="24.5296" departSpeed="3.9683" speedFactor="0.8617" arrival="42.00">
        <route edges="W_in E_out"/>
    </vehicle>

    <vehicle id="flow_10_increasing_0_E_left.0" type="car" depart="0.00" departLane="0" departPos="44.8816" departSpeed="8.1909" speedFactor="1.0826" arrival="43.00">
        <route edges="E_in S_out"/>
    </vehicle>

    <vehicle id="flow_12_increasing_0_E_uturn.0" type="moto" depart="0.00" departLane="0" departPos="5.6544" departSpeed="13.7593" speedFactor="1.0348" arrival="44.00">
        <route edges="E_in E_out"/>
    </vehicle>

    <vehicle id="flow_1_increasing_0_N_straight.0" type="truck" depart="0.00" departLane="0" departPos="8.6229" departSpeed="8.5053" speedFactor="0.8588" arrival="55.00">
        <route edges="N_in S_out"/>
    </vehicle>

    <vehicle id="flow_1_increasing_0_N_straight.1" type="moto" depart="42.00" departLane="1" departPos="121.6549" departSpeed="2.9213" speedFactor="1.1462" arrival="63.00">
        <route edges="N_in S_out"/>
    </vehicle>

    <vehicle id="flow_13_increasing_0_W_straight.1" type="moto" depart="41.00" departLane="1" departPos="31.9285" departSpeed="9.2811" speedFactor="1.1853" arrival="69.00">
        <route edges="W_in E_out"/>
    </vehicle>

    <vehicle id="flow_9_increasing_0_E_straight.1" type="moto" depart="39.00" departLane="0" departPos="131.129" departSpeed="9.5396" speedFactor="1.1582" arrival="71.00">
        <route edges="E_in W_out"/>
    </vehicle>

    <vehicle id="flow_5_increasing_0_S_straight.1" type="moto" depart="40.00" departLane="1" departPos="58.3562" departSpeed="11.6446" speedFactor="0.8727" arrival="97.00">
        <route edges="N_in W_out"/>
    </vehicle>

    <vehicle id="flow_1_increasing_0_N_straight.2" type="moto" depart="84.00" departLane="1" departPos="107.5311" departSpeed="1.1094" speedFactor="0.9279" arrival="110.00">
        <route edges="N_in S_out"/>
    </vehicle>

    <vehicle id="flow_5_increasing_0_S_straight.2" type="moto" depart="80.00" departLane="1" departPos="12.6982" departSpeed="12.4143" speedFactor="0.9623" arrival="112.00">
        <route edges="N_in W_out"/>
    </vehicle>

    <vehicle id="flow_9_increasing_0_E_straight.2" type="moto" depart="77.00" departLane="1" departPos="52.8684" departSpeed="0.3845" speedFactor="0.9938" arrival="118.00">
        <route edges="E_in W_out"/>
    </vehicle>

    <vehicle id="flow_13_increasing_0_W_straight.2" type="truck" depart="81.00" departLane="1" departPos="59.5081" departSpeed="13.3195" speedFactor="0.9657" arrival="123.00">
        <route edges="W_in E_out"/>
    </vehicle>

    <vehicle id="flow_15_increasing_0_W_right.1" type="moto" depart="99.00" departLane="1" departPos="128.6773" departSpeed="3.0596" speedFactor="1.0365" arrival="123.00">
        <route edges="W_in S_out"/>
    </vehicle>

    <vehicle id="flow_14_increasing_0_W_left.1" type="moto" depart="100.00" departLane="0" departPos="69.2372" departSpeed="6.0614" speedFactor="1.0453" arrival="127.00">
        <route edges="W_in N_out"/>
    </vehicle>

    <vehicle id="flow_11_increasing_0_E_right.1" type="moto" depart="102.00" departLane="1" departPos="118.5435" departSpeed="10.7169" speedFactor="0.8806" arrival="128.00">
        <route edges="E_in N_out"/>
    </vehicle>

    <vehicle id="flow_2_increasing_0_N_left.1" type="moto" depart="98.00" departLane="0" departPos="8.8817" departSpeed="2.8196" speedFactor="1.1228" arrival="139.00">
        <route edges="N_in E_out"/>
    </vehicle>

    <vehicle id="flow_6_increasing_0_S_left.1" type="moto" depart="100.00" departLane="0" departPos="156.5209" departSpeed="9.2239" speedFactor="1.0788" arrival="140.00">
        <route edges="S_in W_out"/>
    </vehicle>

    <vehicle id="flow_10_increasing_0_E_left.1" type="car" depart="102.00" departLane="1" departPos="57.3992" departSpeed="0.2554" speedFactor="0.7706" arrival="141.00">
        <route edges="E_in S_out"/>
    </vehicle>

    <vehicle id="flow_5_increasing_0_S_straight.3" type="moto" depart="120.00" departLane="1" departPos="77.9408" departSpeed="4.4335" speedFactor="1.0764" arrival="148.00">
        <route edges="N_in W_out"/>
    </vehicle>

    <vehicle id="flow_3_increasing_0_N_right.1" type="container" depart="105.00" departLane="1" departPos="134.7579" departSpeed="6.2634" speedFactor="0.9146" arrival="149.00">
        <route edges="N_in W_out"/>
    </vehicle>

    <vehicle id="flow_7_increasing_0_S_right.1" type="container" depart="98.00" departLane="1" departPos="66.71" departSpeed="7.8717" speedFactor="0.7845" arrival="151.00">
        <route edges="S_in E_out"/>
    </vehicle>

    <vehicle id="flow_13_increasing_0_W_straight.3" type="moto" depart="122.00" departLane="0" departPos="19.2493" departSpeed="11.1917" speedFactor="1.2027" arrival="153.00">
        <route edges="W_in E_out"/>
    </vehicle>

    <vehicle id="flow_9_increasing_0_E_straight.3" type="truck" depart="116.00" departLane="1" departPos="108.7646" departSpeed="10.3425" speedFactor="0.8515" arrival="160.00">
        <route edges="E_in W_out"/>
    </vehicle>

    <vehicle id="flow_1_increasing_0_N_straight.3" type="moto" depart="126.00" departLane="0" departPos="53.3168" departSpeed="9.7282" speedFactor="1.0575" arrival="177.00">
        <route edges="N_in S_out"/>
    </vehicle>

    <vehicle id="flow_1_increasing_0_N_straight.4" type="car" depart="168.00" departLane="1" departPos="160.3044" departSpeed="13.0764" speedFactor="0.9617" arrival="188.00">
        <route edges="N_in S_out"/>
    </vehicle>

    <vehicle id="flow_5_increasing_0_S_straight.4" type="container" depart="160.00" departLane="0" departPos="70.4575" departSpeed="11.8993" speedFactor="0.9706" arrival="190.00">
        <route edges="N_in W_out"/>
    </vehicle>

    <vehicle id="flow_9_increasing_0_E_straight.4" type="bus" depart="154.00" departLane="0" departPos="135.2371" departSpeed="1.6457" speedFactor="0.9525" arrival="205.00">
        <route edges="E_in W_out"/>
    </vehicle>

    <vehicle id="flow_13_increasing_0_W_straight.4" type="truck" depart="162.00" departLane="1" departPos="74.0695" departSpeed="0.5146" speedFactor="0.8691" arrival="206.00">
        <route edges="W_in E_out"/>
    </vehicle>

    <vehicle id="flow_9_increasing_0_E_straight.5" type="moto" depart="193.00" departLane="1" departPos="111.6918" departSpeed="5.9674" speedFactor="0.9964" arrival="216.00">
        <route edges="E_in W_out"/>
    </vehicle>

    <vehicle id="flow_4_increasing_0_N_uturn.1" type="moto" depart="192.00" departLane="1" departPos="65.3279" departSpeed="12.9273" speedFactor="1.0283" arrival="222.00">
        <route edges="N_in N_out"/>
    </vehicle>

    <vehicle id="flow_7_increasing_0_S_right.2" type="car" depart="196.00" departLane="0" departPos="155.6805" departSpeed="8.7958" speedFactor="0.9870" arrival="223.00">
        <route edges="S_in E_out"/>
    </vehicle>

    <vehicle id="flow_5_increasing_0_S_straight.5" type="moto" depart="200.00" departLane="1" departPos="151.2924" departSpeed="2.1826" speedFactor="0.9374" arrival="223.00">
        <route edges="N_in W_out"/>
    </vehicle>

    <vehicle id="flow_16_increasing_0_W_uturn.1" type="moto" depart="195.00" departLane="1" departPos="129.0888" departSpeed="6.0297" speedFactor="1.1432" arrival="233.00">
        <route edges="W_in W_out"/>
    </vehicle>

    <vehicle id="flow_2_increasing_0_N_left.2" type="container" depart="196.00" departLane="1" departPos="19.5053" departSpeed="7.1605" speedFactor="0.8985" arrival="233.00">
        <route edges="N_in E_out"/>
    </vehicle>

    <vehicle id="flow_11_increasing_0_E_right.2" type="moto" depart="204.00" departLane="1" departPos="148.6531" departSpeed="7.0397" speedFactor="1.0390" arrival="235.00">
        <route edges="E_in N_out"/>
    </vehicle>

    <vehicle id="flow_15_increasing_0_W_right.2" type="moto" depart="197.00" departLane="1" departPos="2.773" departSpeed="7.2657" speedFactor="0.9517" arrival="236.00">
        <route edges="W_in S_out"/>
    </vehicle>

    <vehicle id="flow_13_increasing_0_W_straight.5" type="moto" depart="203.00" departLane="0" departPos="21.6793" departSpeed="13.4813" speedFactor="1.0668" arrival="237.00">
        <route edges="W_in E_out"/>
    </vehicle>

    <vehicle id="flow_10_increasing_0_E_left.2" type="moto" depart="204.00" departLane="1" departPos="74.602" departSpeed="12.9982" speedFactor="1.1413" arrival="239.00">
        <route edges="E_in S_out"/>
    </vehicle>

    <vehicle id="flow_12_increasing_0_E_uturn.1" type="moto" depart="198.00" departLane="0" departPos="91.5182" departSpeed="10.9535" speedFactor="0.8882" arrival="240.00">
        <route edges="E_in E_out"/>
    </vehicle>

    <vehicle id="flow_14_increasing_0_W_left.2" type="car" depart="200.00" departLane="0" departPos="2.2119" departSpeed="11.8483" speedFactor="0.9279" arrival="240.00">
        <route edges="W_in N_out"/>
    </vehicle>

    <vehicle id="flow_1_increasing_0_N_straight.5" type="moto" depart="210.00" departLane="1" departPos="84.6621" departSpeed="2.3538" speedFactor="1.1043" arrival="248.00">
        <route edges="N_in S_out"/>
    </vehicle>

    <vehicle id="flow_3_increasing_0_N_right.2" type="moto" depart="209.00" departLane="0" departPos="63.1043" departSpeed="10.5778" speedFactor="0.9020" arrival="250.00">
        <route edges="N_in W_out"/>
    </vehicle>

    <vehicle id="flow_6_increasing_0_S_left.2" type="moto" depart="200.00" departLane="0" departPos="0.1622" departSpeed="4.8349" speedFactor="1.0265" arrival="252.00">
        <route edges="S_in W_out"/>
    </vehicle>

    <vehicle id="flow_8_increasing_0_S_uturn.1" type="car" depart="211.00" departLane="1" departPos="84.296" departSpeed="9.0214" speedFactor="0.8975" arrival="255.00">
        <route edges="S_in S_out"/>
    </vehicle>

    <vehicle id="flow_5_increasing_0_S_straight.6" type="moto" depart="239.00" departLane="0" departPos="149.6933" departSpeed="1.9769" speedFactor="1.0983" arrival="260.00">
        <route edges="N_in W_out"/>
    </vehicle>

    <vehicle id="flow_9_increasing_0_E_straight.6" type="moto" depart="231.00" departLane="1" departPos="29.8839" departSpeed="11.3705" speedFactor="1.0203" arrival="273.00">
        <route edges="E_in W_out"/>
    </vehicle>

    <vehicle id="flow_13_increasing_0_W_straight.6" type="moto" depart="243.00" departLane="0" departPos="42.8454" departSpeed="1.3188" speedFactor="0.9711" arrival="274.00">
        <route edges="W_in E_out"/>
    </vehicle>

    <vehicle id="flow_1_increasing_0_N_straight.6" type="moto" depart="252.00" departLane="1" departPos="174.3479" departSpeed="2.649" speedFactor="0.9756" arrival="296.00">
        <route edges="N_in S_out"/>
    </vehicle>

    <vehicle id="flow_9_increasing_0_E_straight.7" type="moto" depart="270.00" departLane="0" departPos="161.3057" departSpeed="3.5116" speedFactor="1.0085" arrival="308.00">
        <route edges="E_in W_out"/>
    </vehicle>

    <vehicle id="flow_13_increasing_0_W_straight.7" type="moto" depart="283.00" departLane="0" departPos="174.056" departSpeed="2.4542" speedFactor="0.8003" arrival="312.00">
        <route edges="W_in E_out"/>
    </vehicle>

    <vehicle id="flow_30_increasing_300_W_left.0" type="moto" depart="300.00" departLane="0" departPos="151.0147" departSpeed="10.0633" speedFactor="1.0281" arrival="321.00">
        <route edges="W_in N_out"/>
    </vehicle>

    <vehicle id="flow_14_increasing_0_W_left.3" type="moto" depart="299.00" departLane="0" departPos="114.6211" departSpeed="11.4703" speedFactor="1.1166" arrival="322.00">
        <route edges="W_in N_out"/>
    </vehicle>

    <vehicle id="flow_29_increasing_300_W_straight.0" type="car" depart="300.00" departLane="0" departPos="96.1141" departSpeed="8.3736" speedFactor="1.0323" arrival="323.00">
        <route edges="W_in E_out"/>
    </vehicle>

    <vehicle id="flow_28_increasing_300_E_uturn.0" type="truck" depart="300.00" departLane="1" departPos="150.7313" departSpeed="0.4965" speedFactor="0.9032" arrival="330.00">
        <route edges="E_in E_out"/>
    </vehicle>

    <vehicle id="flow_23_increasing_300_S_right.0" type="moto" depart="300.00" departLane="0" departPos="157.0309" departSpeed="10.2025" speedFactor="0.9645" arrival="331.00">
        <route edges="S_in E_out"/>
    </vehicle>

    <vehicle id="flow_7_increasing_0_S_right.3" type="moto" depart="293.00" departLane="0" departPos="6.5659" departSpeed="8.4571" speedFactor="1.0682" arrival="332.00">
        <route edges="S_in E_out"/>
    </vehicle>

    <vehicle id="flow_19_increasing_300_N_right.0" type="moto" depart="300.00" departLane="1" departPos="103.4641" departSpeed="3.6855" speedFactor="1.2976" arrival="334.00">
        <route edges="N_in W_out"/>
    </vehicle>

    <vehicle id="flow_21_increasing_300_S_straight.0" type="car" depart="300.00" departLane="0" departPos="35.6434" departSpeed="3.2788" speedFactor="1.0212" arrival="334.00">
        <route edges="S_in N_out"/>
    </vehicle>

    <vehicle id="flow_5_increasing_0_S_straight.7" type="truck" depart="279.00" departLane="1" departPos="45.2041" departSpeed="2.394" speedFactor="0.9040" arrival="335.00">
        <route edges="N_in W_out"/>
    </vehicle>

    <vehicle id="flow_1_increasing_0_N_straight.7" type="moto" depart="294.00" departLane="1" departPos="126.2936" departSpeed="8.5807" speedFactor="0.8330" arrival="335.00">
        <route edges="N_in S_out"/>
    </vehicle>

    <vehicle id="flow_22_increasing_300_S_left.0" type="moto" depart="300.00" departLane="1" departPos="84.7431" departSpeed="4.0987" speedFactor="1.1157" arrival="337.00">
        <route edges="S_in W_out"/>
    </vehicle>

    <vehicle id="flow_2_increasing_0_N_left.3" type="moto" depart="293.00" departLane="1" departPos="76.4696" departSpeed="11.7128" speedFactor="1.0626" arrival="339.00">
        <route edges="N_in E_out"/>
    </vehicle>

    <vehicle id="flow_25_increasing_300_E_straight.0" type="moto" depart="300.00" departLane="1" departPos="109.1161" departSpeed="3.3873" speedFactor="1.1571" arrival="343.00">
        <route edges="E_in W_out"/>
    </vehicle>

    <vehicle id="flow_17_increasing_300_N_straight.0" type="truck" depart="300.00" departLane="0" departPos="74.7856" departSpeed="12.7254" speedFactor="0.9320" arrival="345.00">
        <route edges="N_in S_out"/>
    </vehicle>

    <vehicle id="flow_31_increasing_300_W_right.0" type="moto" depart="300.00" departLane="1" departPos="64.7255" departSpeed="4.6123" speedFactor="0.8620" arrival="346.00">
        <route edges="W_in S_out"/>
    </vehicle>

    <vehicle id="flow_15_increasing_0_W_right.3" type="moto" depart="295.00" departLane="0" departPos="1.3904" departSpeed="5.6236" speedFactor="0.8878" arrival="347.00">
        <route edges="W_in S_out"/>
    </vehicle>

    <vehicle id="flow_26_increasing_300_E_left.0" type="moto" depart="300.00" departLane="1" departPos="5.9732" departSpeed="0.4338" speedFactor="0.9897" arrival="347.00">
        <route edges="E_in S_out"/>
    </vehicle>

    <vehicle id="flow_6_increasing_0_S_left.3" type="moto" depart="299.00" departLane="0" departPos="81.5805" departSpeed="1.361" speedFactor="1.1705" arrival="348.00">
        <route edges="S_in W_out"/>
    </vehicle>

    <vehicle id="flow_27_increasing_300_E_right.0" type="truck" depart="300.00" departLane="0" departPos="65.0172" departSpeed="2.6148" speedFactor="0.9315" arrival="348.00">
        <route edges="E_in N_out"/>
    </vehicle>

    <vehicle id="flow_25_increasing_300_E_straight.1" type="moto" depart="328.00" departLane="1" departPos="123.8246" departSpeed="4.4525" speedFactor="1.0039" arrival="351.00">
        <route edges="E_in W_out"/>
    </vehicle>

    <vehicle id="flow_32_increasing_300_W_uturn.0" type="moto" depart="300.00" departLane="0" departPos="29.1188" departSpeed="4.2369" speedFactor="1.0387" arrival="355.00">
        <route edges="W_in W_out"/>
    </vehicle>

    <vehicle id="flow_21_increasing_300_S_straight.1" type="moto" depart="330.00" departLane="0" departPos="169.4272" departSpeed="11.2239" speedFactor="1.1421" arrival="356.00">
        <route edges="S_in N_out"/>
    </vehicle>

    <vehicle id="flow_18_increasing_300_N_left.0" type="car" depart="300.00" departLane="1" departPos="2.2093" departSpeed="7.8196" speedFactor="1.0648" arrival="359.00">
        <route edges="N_in E_out"/>
    </vehicle>

    <vehicle id="flow_20_increasing_300_N_uturn.0" type="moto" depart="300.00" departLane="1" departPos="42.0768" departSpeed="10.5538" speedFactor="0.8391" arrival="360.00">
        <route edges="N_in N_out"/>
    </vehicle>

    <vehicle id="flow_17_increasing_300_N_straight.1" type="moto" depart="331.00" departLane="1" departPos="67.694" departSpeed="0.1602" speedFactor="1.0387" arrival="360.00">
        <route edges="N_in S_out"/>
    </vehicle>

    <vehicle id="flow_24_increasing_300_S_uturn.0" type="bus" depart="300.00" departLane="1" departPos="69.3051" departSpeed="6.5123" speedFactor="1.0917" arrival="367.00">
        <route edges="S_in S_out"/>
    </vehicle>

    <vehicle id="flow_25_increasing_300_E_straight.2" type="truck" depart="356.00" departLane="1" departPos="140.3456" departSpeed="8.8216" speedFactor="0.8196" arrival="383.00">
        <route edges="E_in W_out"/>
    </vehicle>

    <vehicle id="flow_29_increasing_300_W_straight.1" type="truck" depart="330.00" departLane="1" departPos="173.8291" departSpeed="0.6963" speedFactor="1.0325" arrival="384.00">
        <route edges="W_in E_out"/>
    </vehicle>

    <vehicle id="flow_29_increasing_300_W_straight.2" type="truck" depart="360.00" departLane="0" departPos="34.8311" departSpeed="5.395" speedFactor="0.9784" arrival="390.00">
        <route edges="W_in E_out"/>
    </vehicle>

    <vehicle id="flow_27_increasing_300_E_right.1" type="car" depart="369.00" departLane="1" departPos="169.9316" departSpeed="3.1927" speedFactor="0.9547" arrival="390.00">
        <route edges="E_in N_out"/>
    </vehicle>

    <vehicle id="flow_31_increasing_300_W_right.1" type="moto" depart="371.00" departLane="0" departPos="57.4616" departSpeed="5.6812" speedFactor="1.0047" arrival="399.00">
        <route edges="W_in S_out"/>
    </vehicle>

    <vehicle id="flow_30_increasing_300_W_left.1" type="moto" depart="376.00" departLane="1" departPos="162.1669" departSpeed="11.8779" speedFactor="0.8642" arrival="399.00">
        <route edges="W_in N_out"/>
    </vehicle>

    <vehicle id="flow_21_increasing_300_S_straight.2" type="moto" depart="360.00" departLane="0" departPos="109.2982" departSpeed="0.3866" speedFactor="1.0448" arrival="403.00">
        <route edges="S_in N_out"/>
    </vehicle>

    <vehicle id="flow_17_increasing_300_N_straight.2" type="moto" depart="361.00" departLane="0" departPos="123.2337" departSpeed="11.8848" speedFactor="1.0140" arrival="403.00">
        <route edges="N_in S_out"/>
    </vehicle>

    <vehicle id="flow_19_increasing_300_N_right.1" type="car" depart="374.00" departLane="1" departPos="60.9644" departSpeed="6.7127" speedFactor="1.1290" arrival="403.00">
        <route edges="N_in W_out"/>
    </vehicle>

    <vehicle id="flow_23_increasing_300_S_right.1" type="car" depart="373.00" departLane="0" departPos="114.5714" departSpeed="11.139" speedFactor="1.0144" arrival="404.00">
        <route edges="S_in E_out"/>
    </vehicle>

    <vehicle id="flow_22_increasing_300_S_left.1" type="moto" depart="372.00" departLane="0" departPos="184.7562" departSpeed="0.9143" speedFactor="1.1365" arrival="405.00">
        <route edges="S_in W_out"/>
    </vehicle>

    <vehicle id="flow_18_increasing_300_N_left.1" type="moto" depart="372.00" departLane="0" departPos="131.4461" departSpeed="14.1894" speedFactor="1.0699" arrival="407.00">
        <route edges="N_in E_out"/>
    </vehicle>

    <vehicle id="flow_17_increasing_300_N_straight.3" type="moto" depart="391.00" departLane="1" departPos="170.5857" departSpeed="10.8378" speedFactor="1.0856" arrival="408.00">
        <route edges="N_in S_out"/>
    </vehicle>

    <vehicle id="flow_29_increasing_300_W_straight.3" type="moto" depart="390.00" departLane="0" departPos="169.1917" departSpeed="9.0911" speedFactor="0.9282" arrival="417.00">
        <route edges="W_in E_out"/>
    </vehicle>

    <vehicle id="flow_26_increasing_300_E_left.1" type="moto" depart="375.00" departLane="1" departPos="66.1547" departSpeed="13.6378" speedFactor="1.2552" arrival="418.00">
        <route edges="E_in S_out"/>
    </vehicle>

    <vehicle id="flow_25_increasing_300_E_straight.3" type="moto" depart="384.00" departLane="1" departPos="11.9624" departSpeed="0.7572" speedFactor="0.9584" arrival="418.00">
        <route edges="E_in W_out"/>
    </vehicle>

    <vehicle id="flow_25_increasing_300_E_straight.4" type="moto" depart="411.00" departLane="0" departPos="128.7404" departSpeed="3.2906" speedFactor="0.9059" arrival="435.00">
        <route edges="E_in W_out"/>
    </vehicle>

    <vehicle id="flow_21_increasing_300_S_straight.3" type="bus" depart="390.00" departLane="1" departPos="102.4537" departSpeed="0.5883" speedFactor="0.9819" arrival="445.00">
        <route edges="S_in N_out"/>
    </vehicle>

    <vehicle id="flow_21_increasing_300_S_straight.4" type="moto" depart="419.00" departLane="0" departPos="28.3376" departSpeed="13.053" speedFactor="1.2148" arrival="447.00">
        <route edges="S_in N_out"/>
    </vehicle>

    <vehicle id="flow_17_increasing_300_N_straight.4" type="moto" depart="421.00" departLane="1" departPos="38.4375" departSpeed="1.0186" speedFactor="0.8917" arrival="454.00">
        <route edges="N_in S_out"/>
    </vehicle>

    <vehicle id="flow_27_increasing_300_E_right.2" type="car" depart="438.00" departLane="0" departPos="170.7684" departSpeed="5.8523" speedFactor="0.9957" arrival="461.00">
        <route edges="E_in N_out"/>
    </vehicle>

    <vehicle id="flow_25_increasing_300_E_straight.5" type="moto" depart="439.00" departLane="1" departPos="167.1176" departSpeed="0.7156" speedFactor="0.8543" arrival="463.00">
        <route edges="E_in W_out"/>
    </vehicle>

    <vehicle id="flow_29_increasing_300_W_straight.4" type="bus" depart="420.00" departLane="1" departPos="21.3277" departSpeed="6.807" speedFactor="0.9554" arrival="467.00">
        <route edges="W_in E_out"/>
    </vehicle>

    <vehicle id="flow_32_increasing_300_W_uturn.1" type="moto" depart="442.00" departLane="1" departPos="50.8725" departSpeed="13.6675" speedFactor="1.1523" arrival="469.00">
        <route edges="W_in W_out"/>
    </vehicle>

    <vehicle id="flow_28_increasing_300_E_uturn.1" type="truck" depart="443.00" departLane="0" departPos="114.397" departSpeed="11.8953" speedFactor="0.8815" arrival="473.00">
        <route edges="E_in E_out"/>
    </vehicle>

    <vehicle id="flow_31_increasing_300_W_right.2" type="moto" depart="441.00" departLane="0" departPos="98.6919" departSpeed="1.2726" speedFactor="0.7657" arrival="474.00">
        <route edges="W_in S_out"/>
    </vehicle>

    <vehicle id="flow_29_increasing_300_W_straight.5" type="bus" depart="450.00" departLane="1" departPos="127.7831" departSpeed="9.1493" speedFactor="1.0217" arrival="475.00">
        <route edges="W_in E_out"/>
    </vehicle>

    <vehicle id="flow_26_increasing_300_E_left.2" type="truck" depart="450.00" departLane="0" departPos="184.144" departSpeed="0.7072" speedFactor="0.9700" arrival="481.00">
        <route edges="E_in S_out"/>
    </vehicle>

    <vehicle id="flow_30_increasing_300_W_left.2" type="truck" depart="452.00" departLane="1" departPos="80.4314" departSpeed="11.4884" speedFactor="1.0167" arrival="481.00">
        <route edges="W_in N_out"/>
    </vehicle>

    <vehicle id="flow_23_increasing_300_S_right.2" type="moto" depart="446.00" departLane="0" departPos="27.7577" departSpeed="10.2862" speedFactor="0.8756" arrival="486.00">
        <route edges="S_in E_out"/>
    </vehicle>

    <vehicle id="flow_19_increasing_300_N_right.2" type="moto" depart="448.00" departLane="1" departPos="22.618" departSpeed="0.2138" speedFactor="1.0747" arrival="487.00">
        <route edges="N_in W_out"/>
    </vehicle>

    <vehicle id="flow_21_increasing_300_S_straight.5" type="moto" depart="449.00" departLane="0" departPos="7.5649" departSpeed="10.6894" speedFactor="0.9471" arrival="487.00">
        <route edges="S_in N_out"/>
    </vehicle>

    <vehicle id="flow_17_increasing_300_N_straight.5" type="bus" depart="451.00" departLane="0" departPos="39.6761" departSpeed="6.8801" speedFactor="0.9363" arrival="487.00">
        <route edges="N_in S_out"/>
    </vehicle>

    <vehicle id="flow_20_increasing_300_N_uturn.1" type="moto" depart="443.00" departLane="1" departPos="43.1771" departSpeed="3.1843" speedFactor="0.9662" arrival="488.00">
        <route edges="N_in N_out"/>
    </vehicle>

    <vehicle id="flow_18_increasing_300_N_left.2" type="moto" depart="444.00" departLane="1" departPos="120.4896" departSpeed="15.8451" speedFactor="1.1530" arrival="488.00">
        <route edges="N_in E_out"/>
    </vehicle>

    <vehicle id="flow_24_increasing_300_S_uturn.1" type="moto" depart="444.00" departLane="1" departPos="138.898" departSpeed="10.1919" speedFactor="0.8416" arrival="488.00">
        <route edges="S_in S_out"/>
    </vehicle>

    <vehicle id="flow_22_increasing_300_S_left.2" type="moto" depart="444.00" departLane="1" departPos="0.9771" departSpeed="8.3966" speedFactor="0.9806" arrival="491.00">
        <route edges="S_in W_out"/>
    </vehicle>

    <vehicle id="flow_25_increasing_300_E_straight.6" type="truck" depart="467.00" departLane="0" departPos="99.1978" departSpeed="6.6616" speedFactor="0.9234" arrival="504.00">
        <route edges="E_in W_out"/>
    </vehicle>

    <vehicle id="flow_29_increasing_300_W_straight.6" type="moto" depart="480.00" departLane="0" departPos="15.6422" departSpeed="12.6504" speedFactor="0.9174" arrival="512.00">
        <route edges="W_in E_out"/>
    </vehicle>
