<?xml version="1.0" encoding="UTF-8"?>

<!-- generated on 2025-12-09 23:56:04 by Eclipse SUMO sumo Version 1.18.0
<configuration xmlns:xsi="http://www.w3.org/2001/XMLSchema-instance" xsi:noNamespaceSchemaLocation="http://sumo.dlr.de/xsd/sumoConfiguration.xsd">

    <input>
        <net-file value="/workspace/nets/120p4k/net.net.xml"/>
        <route-files value="/workspace/nets/120p4k/route_temp_830_125395600210432_23261340.rou.xml"/>
    </input>

    <output>
        <summary-output value="results/summary_ep_6.xml"/>
        <tripinfo-output value="results/tripinfo_ep_6.xml"/>
        <vehroute-output value="results/vehroute_ep_6.xml"/>
    </output>

    <time>
        <begin value="0"/>
    </time>

    <report>
        <verbose value="true"/>
        <no-step-log value="true"/>
    </report>

    <traci_server>
        <remote-port value="57345"/>
    </traci_server>

    <gui_only>
        <gui-settings-file value="/workspace/nets/120p4k/gui-settings.xml"/>
        <quit-on-end value="true"/>
    </gui_only>

</configuration>
-->

<routes xmlns:xsi="http://www.w3.org/2001/XMLSchema-instance" xsi:noNamespaceSchemaLocation="http://sumo.dlr.de/xsd/routes_file.xsd">
    <vehicle id="flow_3_increasing_0_N_right.0" type="moto" depart="0.00" departLane="0" departPos="103.3842" departSpeed="3.8146" speedFactor="1.1088" arrival="24.00">
        <route edges="N_in W_out"/>
    </vehicle>

    <vehicle id="flow_8_increasing_0_S_uturn.0" type="moto" depart="0.00" departLane="0" departPos="120.1072" departSpeed="4.4837" speedFactor="1.0505" arrival="24.00">
        <route edges="S_in S_out"/>
    </vehicle>

    <vehicle id="flow_5_increasing_0_S_straight.0" type="moto" depart="0.00" departLane="1" departPos="107.3659" departSpeed="7.2113" speedFactor="1.1475" arrival="25.00">
        <route edges="S_in N_out"/>
    </vehicle>

    <vehicle id="flow_6_increasing_0_S_left.0" type="moto" depart="0.00" departLane="1" departPos="166.0107" departSpeed="0.7376" speedFactor="0.8806" arrival="25.00">
        <route edges="S_in W_out"/>
    </vehicle>

    <vehicle id="flow_2_increasing_0_N_left.0" type="moto" depart="0.00" departLane="1" departPos="8.2688" departSpeed="8.3291" speedFactor="1.0157" arrival="31.00">
        <route edges="N_in E_out"/>
    </vehicle>

    <vehicle id="flow_9_increasing_0_E_straight.0" type="car" depart="0.00" departLane="0" departPos="168.2937" departSpeed="10.7269" speedFactor="0.9362" arrival="37.00">
        <route edges="E_in W_out"/>
    </vehicle>

    <vehicle id="flow_16_increasing_0_W_uturn.0" type="moto" depart="0.00" departLane="0" departPos="126.6766" departSpeed="11.7148" speedFactor="1.0383" arrival="38.00">
        <route edges="W_in W_out"/>
    </vehicle>

    <vehicle id="flow_15_increasing_0_W_right.0" type="moto" depart="0.00" departLane="0" departPos="108.377" departSpeed="2.6276" speedFactor="0.8472" arrival="39.00">
        <route edges="W_in S_out"/>
    </vehicle>

    <vehicle id="flow_14_increasing_0_W_left.0" type="moto" depart="0.00" departLane="1" departPos="182.8773" departSpeed="5.6108" speedFactor="1.0101" arrival="40.00">
        <route edges="W_in N_out"/>
    </vehicle>

    <vehicle id="flow_11_increasing_0_E_right.0" type="bus" depart="0.00" departLane="1" departPos="144.9496" departSpeed="4.0187" speedFactor="0.9581" arrival="41.00">
        <route edges="E_in N_out"/>
    </vehicle>

    <vehicle id="flow_13_increasing_0_W_straight.0" type="bus" depart="0.00" departLane="0" departPos="24.5296" departSpeed="3.9683" speedFactor="0.8617" arrival="42.00">
        <route edges="W_in E_out"/>
    </vehicle>

    <vehicle id="flow_4_increasing_0_N_uturn.0" type="moto" depart="0.00" departLane="1" departPos="127.6015" departSpeed="0.0761" speedFactor="0.9074" arrival="43.00">
        <route edges="W_in W_out"/>
    </vehicle>

    <vehicle id="flow_10_increasing_0_E_left.0" type="car" depart="0.00" departLane="0" departPos="44.8816" departSpeed="8.1909" speedFactor="1.0826" arrival="43.00">
        <route edges="E_in S_out"/>
    </vehicle>

    <vehicle id="flow_12_increasing_0_E_uturn.0" type="moto" depart="0.00" departLane="0" departPos="5.6544" departSpeed="13.7593" speedFactor="1.0348" arrival="44.00">
        <route edges="E_in E_out"/>
    </vehicle>

    <vehicle id="flow_7_increasing_0_S_right.0" type="bus" depart="0.00" departLane="0" departPos="8.759" departSpeed="8.4712" speedFactor="0.8915" arrival="53.00">
        <route edges="S_in E_out"/>
    </vehicle>

    <vehicle id="flow_1_increasing_0_N_straight.0" type="truck" depart="0.00" departLane="0" departPos="8.6229" departSpeed="8.5053" speedFactor="0.8588" arrival="55.00">
        <route edges="N_in S_out"/>
    </vehicle>

    <vehicle id="flow_9_increasing_0_E_straight.1" type="moto" depart="39.00" departLane="0" departPos="131.129" departSpeed="9.5396" speedFactor="1.1582" arrival="58.00">
        <route edges="E_in W_out"/>
    </vehicle>

    <vehicle id="flow_13_increasing_0_W_straight.1" type="moto" depart="41.00" departLane="1" departPos="31.9285" departSpeed="9.2811" speedFactor="1.1853" arrival="66.00">
        <route edges="W_in E_out"/>
    </vehicle>

    <vehicle id="flow_1_increasing_0_N_straight.1" type="moto" depart="42.00" departLane="1" departPos="121.6549" departSpeed="2.9213" speedFactor="1.1462" arrival="84.00">
        <route edges="N_in S_out"/>
    </vehicle>

    <vehicle id="flow_5_increasing_0_S_straight.1" type="moto" depart="40.00" departLane="1" departPos="58.3562" departSpeed="11.6446" speedFactor="0.8727" arrival="87.00">
        <route edges="S_in N_out"/>
    </vehicle>

    <vehicle id="flow_9_increasing_0_E_straight.2" type="moto" depart="77.00" departLane="1" departPos="52.8684" departSpeed="0.3845" speedFactor="0.9938" arrival="107.00">
        <route edges="E_in W_out"/>
    </vehicle>

    <vehicle id="flow_13_increasing_0_W_straight.2" type="truck" depart="81.00" departLane="1" departPos="59.5081" departSpeed="13.3195" speedFactor="0.9657" arrival="108.00">
        <route edges="W_in E_out"/>
    </vehicle>

    <vehicle id="flow_5_increasing_0_S_straight.2" type="moto" depart="80.00" departLane="1" departPos="12.6982" departSpeed="12.4143" speedFactor="0.9623" arrival="122.00">
        <route edges="S_in N_out"/>
    </vehicle>

    <vehicle id="flow_1_increasing_0_N_straight.2" type="moto" depart="84.00" departLane="1" departPos="107.5311" departSpeed="1.1094" speedFactor="0.9279" arrival="123.00">
        <route edges="N_in S_out"/>
    </vehicle>

    <vehicle id="flow_6_increasing_0_S_left.1" type="moto" depart="100.00" departLane="0" departPos="156.5209" departSpeed="9.2239" speedFactor="1.0788" arrival="123.00">
        <route edges="S_in W_out"/>
    </vehicle>

    <vehicle id="flow_2_increasing_0_N_left.1" type="moto" depart="98.00" departLane="0" departPos="8.8817" departSpeed="2.8196" speedFactor="1.1228" arrival="128.00">
        <route edges="N_in E_out"/>
    </vehicle>

    <vehicle id="flow_15_increasing_0_W_right.1" type="moto" depart="99.00" departLane="1" departPos="128.6773" departSpeed="3.0596" speedFactor="1.0365" arrival="133.00">
        <route edges="W_in S_out"/>
    </vehicle>

    <vehicle id="flow_3_increasing_0_N_right.1" type="container" depart="105.00" departLane="1" departPos="134.7579" departSpeed="6.2634" speedFactor="0.9146" arrival="133.00">
        <route edges="N_in W_out"/>
    </vehicle>

    <vehicle id="flow_7_increasing_0_S_right.1" type="container" depart="98.00" departLane="1" departPos="66.71" departSpeed="7.8717" speedFactor="0.7845" arrival="134.00">
        <route edges="S_in E_out"/>
    </vehicle>

    <vehicle id="flow_14_increasing_0_W_left.1" type="moto" depart="100.00" departLane="0" departPos="69.2372" departSpeed="6.0614" speedFactor="1.0453" arrival="134.00">
        <route edges="W_in N_out"/>
    </vehicle>

    <vehicle id="flow_11_increasing_0_E_right.1" type="moto" depart="102.00" departLane="1" departPos="118.5435" departSpeed="10.7169" speedFactor="0.8806" arrival="135.00">
        <route edges="E_in N_out"/>
    </vehicle>

    <vehicle id="flow_10_increasing_0_E_left.1" type="car" depart="102.00" departLane="1" departPos="57.3992" departSpeed="0.2554" speedFactor="0.7706" arrival="141.00">
        <route edges="E_in S_out"/>
    </vehicle>

    <vehicle id="flow_9_increasing_0_E_straight.3" type="truck" depart="116.00" departLane="1" departPos="108.7646" departSpeed="10.3425" speedFactor="0.8515" arrival="142.00">
        <route edges="E_in W_out"/>
    </vehicle>

    <vehicle id="flow_13_increasing_0_W_straight.3" type="moto" depart="122.00" departLane="0" departPos="19.2493" departSpeed="11.1917" speedFactor="1.2027" arrival="147.00">
        <route edges="W_in E_out"/>
    </vehicle>

    <vehicle id="flow_5_increasing_0_S_straight.3" type="moto" depart="120.00" departLane="1" departPos="77.9408" departSpeed="4.4335" speedFactor="1.0764" arrival="156.00">
        <route edges="S_in N_out"/>
    </vehicle>

    <vehicle id="flow_1_increasing_0_N_straight.3" type="moto" depart="126.00" departLane="0" departPos="148.0778" departSpeed="9.7282" speedFactor="1.0575" arrival="157.00">
        <route edges="N_in S_out"/>
    </vehicle>

    <vehicle id="flow_9_increasing_0_E_straight.4" type="bus" depart="154.00" departLane="1" departPos="23.5668" departSpeed="9.4296" speedFactor="0.9525" arrival="184.00">
        <route edges="E_in W_out"/>
    </vehicle>

    <vehicle id="flow_1_increasing_0_N_straight.4" type="car" depart="168.00" departLane="0" departPos="185.4693" departSpeed="4.1297" speedFactor="0.9617" arrival="193.00">
        <route edges="N_in S_out"/>
    </vehicle>

    <vehicle id="flow_5_increasing_0_S_straight.4" type="container" depart="160.00" departLane="0" departPos="167.2268" departSpeed="1.9044" speedFactor="0.9706" arrival="202.00">
        <route edges="S_in N_out"/>
    </vehicle>

    <vehicle id="flow_13_increasing_0_W_straight.4" type="truck" depart="162.00" departLane="0" departPos="8.0759" departSpeed="5.7989" speedFactor="0.8691" arrival="211.00">
        <route edges="W_in E_out"/>
    </vehicle>

    <vehicle id="flow_4_increasing_0_N_uturn.1" type="moto" depart="192.00" departLane="1" departPos="171.4793" departSpeed="2.1949" speedFactor="1.0283" arrival="213.00">
        <route edges="W_in W_out"/>
    </vehicle>

    <vehicle id="flow_9_increasing_0_E_straight.5" type="moto" depart="193.00" departLane="0" departPos="81.6907" departSpeed="9.1867" speedFactor="0.9964" arrival="218.00">
        <route edges="E_in W_out"/>
    </vehicle>

    <vehicle id="flow_12_increasing_0_E_uturn.1" type="moto" depart="198.00" departLane="1" departPos="168.2148" departSpeed="11.6281" speedFactor="0.8882" arrival="221.00">
        <route edges="E_in E_out"/>
    </vehicle>

    <vehicle id="flow_15_increasing_0_W_right.2" type="moto" depart="197.00" departLane="0" departPos="104.1356" departSpeed="12.4982" speedFactor="0.9517" arrival="222.00">
        <route edges="W_in S_out"/>
    </vehicle>

    <vehicle id="flow_10_increasing_0_E_left.2" type="moto" depart="204.00" departLane="1" departPos="155.3486" departSpeed="13.505" speedFactor="1.1413" arrival="222.00">
        <route edges="E_in S_out"/>
    </vehicle>

    <vehicle id="flow_16_increasing_0_W_uturn.1" type="moto" depart="195.00" departLane="0" departPos="71.9448" departSpeed="4.4062" speedFactor="1.1432" arrival="223.00">
        <route edges="W_in W_out"/>
    </vehicle>

    <vehicle id="flow_14_increasing_0_W_left.2" type="car" depart="200.00" departLane="1" departPos="174.172" departSpeed="0.011" speedFactor="0.9279" arrival="223.00">
        <route edges="W_in N_out"/>
    </vehicle>

    <vehicle id="flow_7_increasing_0_S_right.2" type="car" depart="196.00" departLane="0" departPos="121.5569" departSpeed="11.7514" speedFactor="0.9870" arrival="229.00">
        <route edges="S_in E_out"/>
    </vehicle>

    <vehicle id="flow_6_increasing_0_S_left.2" type="moto" depart="200.00" departLane="1" departPos="89.1662" departSpeed="11.3855" speedFactor="1.0265" arrival="229.00">
        <route edges="S_in W_out"/>
    </vehicle>

    <vehicle id="flow_5_increasing_0_S_straight.5" type="moto" depart="200.00" departLane="0" departPos="31.7588" departSpeed="11.7707" speedFactor="0.9374" arrival="231.00">
        <route edges="S_in N_out"/>
    </vehicle>

    <vehicle id="flow_3_increasing_0_N_right.2" type="moto" depart="209.00" departLane="0" departPos="87.7633" departSpeed="9.8301" speedFactor="0.9020" arrival="237.00">
        <route edges="N_in W_out"/>
    </vehicle>

    <vehicle id="flow_2_increasing_0_N_left.2" type="container" depart="196.00" departLane="1" departPos="108.7048" departSpeed="7.4022" speedFactor="0.8985" arrival="241.00">
        <route edges="N_in E_out"/>
    </vehicle>

    <vehicle id="flow_11_increasing_0_E_right.2" type="moto" depart="204.00" departLane="0" departPos="92.4194" departSpeed="14.3951" speedFactor="1.0390" arrival="241.00">
        <route edges="E_in N_out"/>
    </vehicle>

    <vehicle id="flow_13_increasing_0_W_straight.5" type="moto" depart="203.00" departLane="1" departPos="78.0885" departSpeed="7.2127" speedFactor="1.0668" arrival="242.00">
        <route edges="W_in E_out"/>
    </vehicle>

    <vehicle id="flow_1_increasing_0_N_straight.5" type="moto" depart="210.00" departLane="1" departPos="39.3431" departSpeed="5.1088" speedFactor="1.1043" arrival="254.00">
        <route edges="N_in S_out"/>
    </vehicle>

    <vehicle id="flow_8_increasing_0_S_uturn.1" type="car" depart="211.00" departLane="0" departPos="61.3216" departSpeed="5.5706" speedFactor="0.8975" arrival="257.00">
        <route edges="S_in S_out"/>
    </vehicle>

    <vehicle id="flow_5_increasing_0_S_straight.6" type="moto" depart="239.00" departLane="1" departPos="109.8853" departSpeed="2.4062" speedFactor="1.0983" arrival="262.00">
        <route edges="S_in N_out"/>
    </vehicle>

    <vehicle id="flow_9_increasing_0_E_straight.6" type="moto" depart="231.00" departLane="0" departPos="69.4902" departSpeed="6.3054" speedFactor="1.0203" arrival="278.00">
        <route edges="E_in W_out"/>
    </vehicle>

    <vehicle id="flow_13_increasing_0_W_straight.6" type="moto" depart="243.00" departLane="1" departPos="21.7404" departSpeed="10.6572" speedFactor="0.9711" arrival="279.00">
        <route edges="W_in E_out"/>
    </vehicle>

    <vehicle id="flow_1_increasing_0_N_straight.6" type="moto" depart="252.00" departLane="0" departPos="43.1808" departSpeed="3.0645" speedFactor="0.9756" arrival="291.00">
        <route edges="N_in S_out"/>
    </vehicle>

    <vehicle id="flow_5_increasing_0_S_straight.7" type="truck" depart="279.00" departLane="1" departPos="88.3207" departSpeed="10.6904" speedFactor="0.9040" arrival="305.00">
        <route edges="S_in N_out"/>
    </vehicle>

    <vehicle id="flow_9_increasing_0_E_straight.7" type="moto" depart="270.00" departLane="0" departPos="60.8307" departSpeed="12.8905" speedFactor="1.0085" arrival="314.00">
        <route edges="E_in W_out"/>
    </vehicle>

    <vehicle id="flow_19_increasing_300_N_right.0" type="moto" depart="300.00" departLane="0" departPos="178.6166" departSpeed="8.7311" speedFactor="1.2976" arrival="316.00">
        <route edges="W_in S_out"/>
    </vehicle>

    <vehicle id="flow_13_increasing_0_W_straight.7" type="moto" depart="283.00" departLane="0" departPos="178.3578" departSpeed="2.6522" speedFactor="0.8003" arrival="318.00">
        <route edges="W_in E_out"/>
    </vehicle>

    <vehicle id="flow_32_increasing_300_W_uturn.0" type="moto" depart="300.00" departLane="0" departPos="169.4272" departSpeed="7.5097" speedFactor="1.0387" arrival="321.00">
        <route edges="W_in W_out"/>
    </vehicle>

    <vehicle id="flow_15_increasing_0_W_right.3" type="moto" depart="295.00" departLane="1" departPos="111.5719" departSpeed="0.0905" speedFactor="0.8878" arrival="324.00">
        <route edges="W_in S_out"/>
    </vehicle>

    <vehicle id="flow_23_increasing_300_S_right.0" type="moto" depart="300.00" departLane="1" departPos="177.748" departSpeed="8.1755" speedFactor="0.9645" arrival="327.00">
        <route edges="S_in E_out"/>
    </vehicle>

    <vehicle id="flow_7_increasing_0_S_right.3" type="moto" depart="293.00" departLane="0" departPos="16.037" departSpeed="5.9885" speedFactor="1.0682" arrival="328.00">
        <route edges="S_in E_out"/>
    </vehicle>

    <vehicle id="flow_21_increasing_300_S_straight.0" type="car" depart="300.00" departLane="0" departPos="65.7387" departSpeed="2.6685" speedFactor="1.0212" arrival="330.00">
        <route edges="S_in N_out"/>
    </vehicle>

    <vehicle id="flow_1_increasing_0_N_straight.7" type="moto" depart="294.00" departLane="1" departPos="22.6438" departSpeed="0.401" speedFactor="0.8330" arrival="332.00">
        <route edges="N_in S_out"/>
    </vehicle>

    <vehicle id="flow_2_increasing_0_N_left.3" type="moto" depart="293.00" departLane="1" departPos="107.805" departSpeed="13.5592" speedFactor="1.0626" arrival="334.00">
        <route edges="N_in E_out"/>
    </vehicle>

    <vehicle id="flow_20_increasing_300_N_uturn.0" type="moto" depart="300.00" departLane="0" departPos="173.6034" departSpeed="2.5884" speedFactor="0.8391" arrival="334.00">
        <route edges="N_in N_out"/>
    </vehicle>

    <vehicle id="flow_6_increasing_0_S_left.3" type="moto" depart="299.00" departLane="0" departPos="150.3232" departSpeed="6.8844" speedFactor="1.1705" arrival="335.00">
        <route edges="S_in W_out"/>
    </vehicle>

    <vehicle id="flow_18_increasing_300_N_left.0" type="car" depart="300.00" departLane="1" departPos="109.812" departSpeed="0.1725" speedFactor="1.0648" arrival="336.00">
        <route edges="N_in E_out"/>
    </vehicle>

    <vehicle id="flow_22_increasing_300_S_left.0" type="moto" depart="300.00" departLane="1" departPos="57.3268" departSpeed="6.9315" speedFactor="1.1157" arrival="337.00">
        <route edges="S_in W_out"/>
    </vehicle>

    <vehicle id="flow_25_increasing_300_E_straight.0" type="moto" depart="300.00" departLane="1" departPos="5.9793" departSpeed="0.7836" speedFactor="1.1571" arrival="338.00">
        <route edges="E_in W_out"/>
    </vehicle>

    <vehicle id="flow_29_increasing_300_W_straight.0" type="car" depart="300.00" departLane="0" departPos="90.8186" departSpeed="10.1044" speedFactor="1.0323" arrival="341.00">
        <route edges="W_in E_out"/>
    </vehicle>

    <vehicle id="flow_31_increasing_300_W_right.0" type="moto" depart="300.00" departLane="1" departPos="123.8246" departSpeed="1.8402" speedFactor="0.8620" arrival="342.00">
        <route edges="W_in S_out"/>
    </vehicle>

    <vehicle id="flow_30_increasing_300_W_left.0" type="moto" depart="300.00" departLane="1" departPos="168.3233" departSpeed="4.8785" speedFactor="1.0281" arrival="343.00">
        <route edges="W_in N_out"/>
    </vehicle>

    <vehicle id="flow_14_increasing_0_W_left.3" type="moto" depart="299.00" departLane="0" departPos="36.1365" departSpeed="9.3829" speedFactor="1.1166" arrival="344.00">
        <route edges="W_in N_out"/>
    </vehicle>

    <vehicle id="flow_24_increasing_300_S_uturn.0" type="bus" depart="300.00" departLane="1" departPos="40.1395" departSpeed="0.2018" speedFactor="1.0917" arrival="349.00">
        <route edges="W_in N_out"/>
    </vehicle>

    <vehicle id="flow_29_increasing_300_W_straight.1" type="truck" depart="330.00" departLane="0" departPos="151.3306" departSpeed="10.6234" speedFactor="1.0325" arrival="350.00">
        <route edges="W_in E_out"/>
    </vehicle>

    <vehicle id="flow_27_increasing_300_E_right.0" type="truck" depart="300.00" departLane="1" departPos="150.7313" departSpeed="3.6869" speedFactor="0.9315" arrival="351.00">
        <route edges="E_in S_out"/>
    </vehicle>

    <vehicle id="flow_25_increasing_300_E_straight.1" type="moto" depart="328.00" departLane="1" departPos="140.1793" departSpeed="0.677" speedFactor="1.0039" arrival="354.00">
        <route edges="E_in W_out"/>
    </vehicle>

    <vehicle id="flow_26_increasing_300_E_left.0" type="moto" depart="300.00" departLane="0" departPos="38.2894" departSpeed="12.6326" speedFactor="0.9897" arrival="359.00">
        <route edges="E_in S_out"/>
    </vehicle>

    <vehicle id="flow_28_increasing_300_E_uturn.0" type="truck" depart="300.00" departLane="0" departPos="96.1141" departSpeed="7.3264" speedFactor="0.9032" arrival="359.00">
        <route edges="E_in E_out"/>
    </vehicle>

    <vehicle id="flow_21_increasing_300_S_straight.1" type="moto" depart="330.00" departLane="0" departPos="174.2328" departSpeed="5.668" speedFactor="1.1421" arrival="362.00">
        <route edges="S_in N_out"/>
    </vehicle>

    <vehicle id="flow_17_increasing_300_N_straight.1" type="moto" depart="331.00" departLane="0" departPos="88.8236" departSpeed="8.323" speedFactor="1.0387" arrival="363.00">
        <route edges="N_in S_out"/>
    </vehicle>

    <vehicle id="flow_17_increasing_300_N_straight.0" type="truck" depart="300.00" departLane="1" departPos="20.793" departSpeed="5.1099" speedFactor="0.9320" arrival="368.00">
        <route edges="N_in S_out"/>
    </vehicle>

    <vehicle id="flow_29_increasing_300_W_straight.2" type="truck" depart="360.00" departLane="1" departPos="95.9942" departSpeed="12.189" speedFactor="0.9784" arrival="383.00">
        <route edges="W_in E_out"/>
    </vehicle>

    <vehicle id="flow_25_increasing_300_E_straight.2" type="truck" depart="356.00" departLane="1" departPos="100.3851" departSpeed="2.0929" speedFactor="0.8196" arrival="388.00">
        <route edges="E_in W_out"/>
    </vehicle>

    <vehicle id="flow_31_increasing_300_W_right.1" type="moto" depart="371.00" departLane="0" departPos="172.0661" departSpeed="13.6086" speedFactor="1.0047" arrival="390.00">
        <route edges="W_in S_out"/>
    </vehicle>

    <vehicle id="flow_19_increasing_300_N_right.1" type="car" depart="374.00" departLane="1" departPos="187.4776" departSpeed="0.1229" speedFactor="1.1290" arrival="392.00">
        <route edges="W_in S_out"/>
    </vehicle>

    <vehicle id="flow_27_increasing_300_E_right.1" type="car" depart="369.00" departLane="0" departPos="108.1488" departSpeed="9.2001" speedFactor="0.9547" arrival="395.00">
        <route edges="E_in S_out"/>
    </vehicle>

    <vehicle id="flow_21_increasing_300_S_straight.2" type="moto" depart="360.00" departLane="1" departPos="175.5356" departSpeed="9.1878" speedFactor="1.0448" arrival="399.00">
        <route edges="S_in N_out"/>
    </vehicle>

    <vehicle id="flow_17_increasing_300_N_straight.2" type="moto" depart="361.00" departLane="1" departPos="170.8427" departSpeed="4.2716" speedFactor="1.0140" arrival="399.00">
        <route edges="N_in S_out"/>
    </vehicle>

    <vehicle id="flow_23_increasing_300_S_right.1" type="car" depart="373.00" departLane="0" departPos="161.6079" departSpeed="1.1056" speedFactor="1.0144" arrival="400.00">
        <route edges="S_in E_out"/>
    </vehicle>

    <vehicle id="flow_22_increasing_300_S_left.1" type="moto" depart="372.00" departLane="1" departPos="168.8768" departSpeed="11.4074" speedFactor="1.1365" arrival="401.00">
        <route edges="S_in W_out"/>
    </vehicle>

    <vehicle id="flow_18_increasing_300_N_left.1" type="moto" depart="372.00" departLane="0" departPos="3.1111" departSpeed="8.9866" speedFactor="1.0699" arrival="404.00">
        <route edges="N_in E_out"/>
    </vehicle>

    <vehicle id="flow_25_increasing_300_E_straight.3" type="moto" depart="384.00" departLane="1" departPos="169.1917" departSpeed="9.095" speedFactor="0.9584" arrival="413.00">
        <route edges="E_in W_out"/>
    </vehicle>

    <vehicle id="flow_29_increasing_300_W_straight.3" type="moto" depart="390.00" departLane="0" departPos="128.7404" departSpeed="3.3716" speedFactor="0.9282" arrival="414.00">
        <route edges="W_in E_out"/>
    </vehicle>

    <vehicle id="flow_26_increasing_300_E_left.1" type="moto" depart="375.00" departLane="0" departPos="10.777" departSpeed="2.3028" speedFactor="1.2552" arrival="415.00">
        <route edges="E_in S_out"/>
    </vehicle>

    <vehicle id="flow_30_increasing_300_W_left.1" type="moto" depart="376.00" departLane="0" departPos="8.1725" departSpeed="2.9961" speedFactor="0.8642" arrival="418.00">
        <route edges="W_in N_out"/>
    </vehicle>

    <vehicle id="flow_17_increasing_300_N_straight.3" type="moto" depart="391.00" departLane="0" departPos="28.3376" departSpeed="12.3104" speedFactor="1.0856" arrival="424.00">
        <route edges="N_in S_out"/>
    </vehicle>

    <vehicle id="flow_21_increasing_300_S_straight.3" type="bus" depart="390.00" departLane="1" departPos="170.5857" departSpeed="10.3942" speedFactor="0.9819" arrival="430.00">
        <route edges="S_in N_out"/>
    </vehicle>

    <vehicle id="flow_29_increasing_300_W_straight.4" type="bus" depart="420.00" departLane="0" departPos="170.7684" departSpeed="5.6154" speedFactor="0.9554" arrival="441.00">
        <route edges="W_in E_out"/>
    </vehicle>

    <vehicle id="flow_25_increasing_300_E_straight.4" type="moto" depart="411.00" departLane="1" departPos="21.3277" departSpeed="6.4543" speedFactor="0.9059" arrival="444.00">
        <route edges="E_in W_out"/>
    </vehicle>

    <vehicle id="flow_21_increasing_300_S_straight.4" type="moto" depart="419.00" departLane="1" departPos="38.4375" departSpeed="1.3148" speedFactor="1.2148" arrival="459.00">
        <route edges="S_in N_out"/>
    </vehicle>

    <vehicle id="flow_17_increasing_300_N_straight.4" type="moto" depart="421.00" departLane="1" departPos="167.1176" departSpeed="0.747" speedFactor="0.8917" arrival="463.00">
        <route edges="N_in S_out"/>
    </vehicle>

    <vehicle id="flow_23_increasing_300_S_right.2" type="moto" depart="446.00" departLane="0" departPos="184.144" departSpeed="0.6384" speedFactor="0.8756" arrival="467.00">
        <route edges="S_in E_out"/>
    </vehicle>

    <vehicle id="flow_20_increasing_300_N_uturn.1" type="moto" depart="443.00" departLane="1" departPos="120.4896" departSpeed="13.3002" speedFactor="0.9662" arrival="468.00">
        <route edges="N_in N_out"/>
    </vehicle>

    <vehicle id="flow_18_increasing_300_N_left.2" type="moto" depart="444.00" departLane="1" departPos="62.3987" departSpeed="13.9398" speedFactor="1.1530" arrival="468.00">
        <route edges="N_in E_out"/>
    </vehicle>

    <vehicle id="flow_22_increasing_300_S_left.2" type="moto" depart="444.00" departLane="0" departPos="108.1078" departSpeed="1.9955" speedFactor="0.9806" arrival="470.00">
        <route edges="S_in W_out"/>
    </vehicle>

    <vehicle id="flow_32_increasing_300_W_uturn.1" type="moto" depart="442.00" departLane="0" departPos="114.397" departSpeed="15.5331" speedFactor="1.1523" arrival="472.00">
        <route edges="W_in W_out"/>
    </vehicle>

    <vehicle id="flow_19_increasing_300_N_right.2" type="moto" depart="448.00" departLane="1" departPos="127.7831" departSpeed="9.6239" speedFactor="1.0747" arrival="472.00">
        <route edges="W_in S_out"/>
    </vehicle>

    <vehicle id="flow_27_increasing_300_E_right.2" type="car" depart="438.00" departLane="0" departPos="98.6919" departSpeed="1.6548" speedFactor="0.9957" arrival="474.00">
        <route edges="E_in S_out"/>
    </vehicle>

    <vehicle id="flow_25_increasing_300_E_straight.5" type="moto" depart="439.00" departLane="1" departPos="50.8725" departSpeed="10.1436" speedFactor="0.8543" arrival="477.00">
        <route edges="E_in W_out"/>
    </vehicle>

    <vehicle id="flow_31_increasing_300_W_right.2" type="moto" depart="441.00" departLane="1" departPos="43.1771" departSpeed="2.5235" speedFactor="0.7657" arrival="480.00">
        <route edges="W_in S_out"/>
    </vehicle>

    <vehicle id="flow_29_increasing_300_W_straight.5" type="bus" depart="450.00" departLane="0" departPos="15.6422" departSpeed="7.8889" speedFactor="1.0217" arrival="480.00">
        <route edges="W_in E_out"/>
    </vehicle>

    <vehicle id="flow_30_increasing_300_W_left.2" type="truck" depart="452.00" departLane="0" departPos="116.1788" departSpeed="1.8104" speedFactor="1.0167" arrival="481.00">
        <route edges="W_in N_out"/>
    </vehicle>

    <vehicle id="flow_24_increasing_300_S_uturn.1" type="moto" depart="444.00" departLane="1" departPos="7.5649" departSpeed="1.3955" speedFactor="0.8416" arrival="486.00">
        <route edges="W_in N_out"/>
    </vehicle>

    <vehicle id="flow_28_increasing_300_E_uturn.1" type="truck" depart="443.00" departLane="1" departPos="0.9771" departSpeed="7.548" speedFactor="0.8815" arrival="488.00">
        <route edges="E_in E_out"/>
    </vehicle>

    <vehicle id="flow_26_increasing_300_E_left.2" type="truck" depart="450.00" departLane="1" departPos="28.4645" departSpeed="10.9607" speedFactor="0.9700" arrival="492.00">
        <route edges="E_in S_out"/>
    </vehicle>

    <vehicle id="flow_21_increasing_300_S_straight.5" type="moto" depart="449.00" departLane="0" departPos="39.6761" departSpeed="6.9595" speedFactor="0.9471" arrival="498.00">
        <route edges="S_in N_out"/>
    </vehicle>

    <vehicle id="flow_21_increasing_300_S_straight.6" type="car" depart="479.00" departLane="1" departPos="163.2859" departSpeed="1.5563" speedFactor="1.0262" arrival="499.00">
        <route edges="S_in N_out"/>
    </vehicle>

    <vehicle id="flow_17_increasing_300_N_straight.6" type="car" depart="481.00" departLane="1" departPos="176.9698" departSpeed="11.3506" speedFactor="0.9418" arrival="499.00">
        <route edges="N_in S_out"/>
    </vehicle>

    <vehicle id="flow_17_increasing_300_N_straight.5" type="bus" depart="451.00" departLane="0" departPos="175.8273" departSpeed="1.5579" speedFactor="0.9363" arrival="503.00">
        <route edges="N_in S_out"/>
    </vehicle>
