<?xml version="1.0" encoding="UTF-8"?>

<!-- generated on 2025-12-09 21:38:22 by Eclipse SUMO sumo Version 1.18.0
<configuration xmlns:xsi="http://www.w3.org/2001/XMLSchema-instance" xsi:noNamespaceSchemaLocation="http://sumo.dlr.de/xsd/sumoConfiguration.xsd">

    <input>
        <net-file value="/workspace/nets/120p4k/net.net.xml"/>
        <route-files value="/workspace/nets/120p4k/route_temp_334_123834910177792_74393419.rou.xml"/>
    </input>

    <output>
        <summary-output value="results/summary_ep_6.xml"/>
        <tripinfo-output value="results/tripinfo_ep_6.xml"/>
        <vehroute-output value="results/vehroute_ep_6.xml"/>
    </output>

    <time>
        <begin value="0"/>
    </time>

    <report>
        <verbose value="true"/>
        <no-step-log value="true"/>
    </report>

    <traci_server>
        <remote-port value="59307"/>
    </traci_server>

    <gui_only>
        <gui-settings-file value="/workspace/nets/120p4k/gui-settings.xml"/>
        <quit-on-end value="true"/>
    </gui_only>

</configuration>
-->

<tripinfos xmlns:xsi="http://www.w3.org/2001/XMLSchema-instance" xsi:noNamespaceSchemaLocation="http://sumo.dlr.de/xsd/tripinfo_file.xsd">
    <tripinfo id="flow_5_increasing_0_S_straight.0" depart="0.00" departLane="S_in_1" departPos="107.37" departSpeed="7.21" departDelay="0.00" arrival="25.00" arrivalLane="N_out_1" arrivalPos="189.60" arrivalSpeed="14.65" duration="25.00" routeLength="292.63" waitingTime="0.00" waitingCount="0" stopTime="0.00" timeLoss="6.20" rerouteNo="0" devices="vehroute_flow_5_increasing_0_S_straight.0 tripinfo_flow_5_increasing_0_S_straight.0" vType="moto" speedFactor="1.15" vaporized=""/>
    <tripinfo id="flow_6_increasing_0_S_left.0" depart="0.00" departLane="S_in_1" departPos="166.01" departSpeed="0.74" departDelay="0.00" arrival="25.00" arrivalLane="W_out_1" arrivalPos="189.60" arrivalSpeed="12.00" duration="25.00" routeLength="232.54" waitingTime="0.00" waitingCount="0" stopTime="0.00" timeLoss="4.42" rerouteNo="0" devices="vehroute_flow_6_increasing_0_S_left.0 tripinfo_flow_6_increasing_0_S_left.0" vType="moto" speedFactor="0.88" vaporized=""/>
    <tripinfo id="flow_11_increasing_0_E_right.0" depart="0.00" departLane="S_in_1" departPos="144.95" departSpeed="4.02" departDelay="0.00" arrival="25.00" arrivalLane="N_out_0" arrivalPos="189.60" arrivalSpeed="13.00" duration="25.00" routeLength="255.05" waitingTime="0.00" waitingCount="0" stopTime="0.00" timeLoss="5.18" rerouteNo="0" devices="vehroute_flow_11_increasing_0_E_right.0 tripinfo_flow_11_increasing_0_E_right.0" vType="bus" speedFactor="0.96" vaporized=""/>
    <tripinfo id="flow_3_increasing_0_N_right.0" depart="0.00" departLane="S_in_0" departPos="103.38" departSpeed="3.81" departDelay="0.00" arrival="27.00" arrivalLane="W_out_1" arrivalPos="189.60" arrivalSpeed="15.32" duration="27.00" routeLength="295.17" waitingTime="0.00" waitingCount="0" stopTime="0.00" timeLoss="7.32" rerouteNo="0" devices="vehroute_flow_3_increasing_0_N_right.0 tripinfo_flow_3_increasing_0_N_right.0" vType="moto" speedFactor="1.11" vaporized=""/>
    <tripinfo id="flow_2_increasing_0_N_left.0" depart="0.00" departLane="N_in_1" departPos="8.27" departSpeed="8.33" departDelay="0.00" arrival="32.00" arrivalLane="E_out_1" arrivalPos="189.60" arrivalSpeed="12.95" duration="32.00" routeLength="390.28" waitingTime="0.00" waitingCount="0" stopTime="0.00" timeLoss="2.89" rerouteNo="0" devices="vehroute_flow_2_increasing_0_N_left.0 tripinfo_flow_2_increasing_0_N_left.0" vType="moto" speedFactor="1.02" vaporized=""/>
    <tripinfo id="flow_4_increasing_0_N_uturn.0" depart="0.00" departLane="N_in_1" departPos="127.60" departSpeed="0.08" departDelay="0.00" arrival="32.00" arrivalLane="N_out_1" arrivalPos="189.60" arrivalSpeed="11.32" duration="32.00" routeLength="256.27" waitingTime="1.00" waitingCount="1" stopTime="0.00" timeLoss="9.87" rerouteNo="0" devices="vehroute_flow_4_increasing_0_N_uturn.0 tripinfo_flow_4_increasing_0_N_uturn.0" vType="moto" speedFactor="0.91" vaporized=""/>
    <tripinfo id="flow_9_increasing_0_E_straight.0" depart="0.00" departLane="E_in_0" departPos="168.29" departSpeed="10.73" departDelay="0.00" arrival="37.00" arrivalLane="W_out_0" arrivalPos="189.60" arrivalSpeed="11.84" duration="37.00" routeLength="231.71" waitingTime="12.00" waitingCount="1" stopTime="0.00" timeLoss="18.86" rerouteNo="0" devices="vehroute_flow_9_increasing_0_E_straight.0 tripinfo_flow_9_increasing_0_E_straight.0" vType="car" speedFactor="0.94" vaporized=""/>
    <tripinfo id="flow_16_increasing_0_W_uturn.0" depart="0.00" departLane="E_in_1" departPos="126.68" departSpeed="1.28" departDelay="0.00" arrival="37.00" arrivalLane="N_out_0" arrivalPos="189.60" arrivalSpeed="13.46" duration="37.00" routeLength="261.55" waitingTime="9.00" waitingCount="1" stopTime="0.00" timeLoss="17.71" rerouteNo="0" devices="vehroute_flow_16_increasing_0_W_uturn.0 tripinfo_flow_16_increasing_0_W_uturn.0" vType="moto" speedFactor="1.04" vaporized=""/>
    <tripinfo id="flow_8_increasing_0_S_uturn.0" depart="0.00" departLane="W_in_0" departPos="120.11" departSpeed="4.48" departDelay="0.00" arrival="39.00" arrivalLane="N_out_1" arrivalPos="189.60" arrivalSpeed="13.87" duration="39.00" routeLength="278.44" waitingTime="11.00" waitingCount="2" stopTime="0.00" timeLoss="18.94" rerouteNo="0" devices="vehroute_flow_8_increasing_0_S_uturn.0 tripinfo_flow_8_increasing_0_S_uturn.0" vType="moto" speedFactor="1.05" vaporized=""/>
    <tripinfo id="flow_13_increasing_0_W_straight.0" depart="0.00" departLane="W_in_0" departPos="77.99" departSpeed="3.97" departDelay="0.00" arrival="42.00" arrivalLane="E_out_0" arrivalPos="189.60" arrivalSpeed="11.38" duration="42.00" routeLength="322.01" waitingTime="1.00" waitingCount="1" stopTime="0.00" timeLoss="14.86" rerouteNo="0" devices="vehroute_flow_13_increasing_0_W_straight.0 tripinfo_flow_13_increasing_0_W_straight.0" vType="bus" speedFactor="0.86" vaporized=""/>
    <tripinfo id="flow_10_increasing_0_E_left.0" depart="0.00" departLane="E_in_0" departPos="44.88" departSpeed="8.19" departDelay="0.00" arrival="43.00" arrivalLane="S_out_1" arrivalPos="189.60" arrivalSpeed="14.98" duration="43.00" routeLength="353.67" waitingTime="8.00" waitingCount="2" stopTime="0.00" timeLoss="17.89" rerouteNo="0" devices="vehroute_flow_10_increasing_0_E_left.0 tripinfo_flow_10_increasing_0_E_left.0" vType="car" speedFactor="1.08" vaporized=""/>
    <tripinfo id="flow_12_increasing_0_E_uturn.0" depart="0.00" departLane="E_in_0" departPos="5.65" departSpeed="13.76" departDelay="0.00" arrival="44.00" arrivalLane="E_out_1" arrivalPos="189.60" arrivalSpeed="13.58" duration="44.00" routeLength="378.22" waitingTime="7.00" waitingCount="2" stopTime="0.00" timeLoss="16.73" rerouteNo="0" devices="vehroute_flow_12_increasing_0_E_uturn.0 tripinfo_flow_12_increasing_0_E_uturn.0" vType="moto" speedFactor="1.03" vaporized=""/>
    <tripinfo id="flow_15_increasing_0_W_right.0" depart="0.00" departLane="W_in_1" departPos="45.77" departSpeed="6.73" departDelay="0.00" arrival="44.00" arrivalLane="S_out_0" arrivalPos="189.60" arrivalSpeed="10.97" duration="44.00" routeLength="342.46" waitingTime="0.00" waitingCount="0" stopTime="0.00" timeLoss="13.98" rerouteNo="0" devices="vehroute_flow_15_increasing_0_W_right.0 tripinfo_flow_15_increasing_0_W_right.0" vType="moto" speedFactor="0.85" vaporized=""/>
    <tripinfo id="flow_7_increasing_0_S_right.0" depart="0.00" departLane="W_in_0" departPos="8.76" departSpeed="8.47" departDelay="0.00" arrival="46.00" arrivalLane="S_out_0" arrivalPos="189.60" arrivalSpeed="12.16" duration="46.00" routeLength="379.47" waitingTime="0.00" waitingCount="0" stopTime="0.00" timeLoss="14.50" rerouteNo="0" devices="vehroute_flow_7_increasing_0_S_right.0 tripinfo_flow_7_increasing_0_S_right.0" vType="bus" speedFactor="0.89" vaporized=""/>
    <tripinfo id="flow_1_increasing_0_N_straight.0" depart="0.00" departLane="N_in_0" departPos="8.62" departSpeed="8.51" departDelay="0.00" arrival="54.00" arrivalLane="S_out_0" arrivalPos="189.60" arrivalSpeed="11.50" duration="54.00" routeLength="391.38" waitingTime="12.00" waitingCount="1" stopTime="0.00" timeLoss="20.78" rerouteNo="0" devices="vehroute_flow_1_increasing_0_N_straight.0 tripinfo_flow_1_increasing_0_N_straight.0" vType="truck" speedFactor="0.86" vaporized=""/>
    <tripinfo id="flow_14_increasing_0_W_left.0" depart="0.00" departLane="E_in_1" departPos="42.31" departSpeed="3.71" departDelay="0.00" arrival="62.00" arrivalLane="E_out_1" arrivalPos="189.60" arrivalSpeed="12.78" duration="62.00" routeLength="341.56" waitingTime="17.00" waitingCount="3" stopTime="0.00" timeLoss="36.37" rerouteNo="0" devices="vehroute_flow_14_increasing_0_W_left.0 tripinfo_flow_14_increasing_0_W_left.0" vType="moto" speedFactor="1.01" vaporized=""/>
    <tripinfo id="flow_9_increasing_0_E_straight.1" depart="65.00" departLane="E_in_0" departPos="131.13" departSpeed="9.54" departDelay="0.90" arrival="84.00" arrivalLane="W_out_0" arrivalPos="189.60" arrivalSpeed="15.35" duration="19.00" routeLength="268.87" waitingTime="0.00" waitingCount="0" stopTime="0.00" timeLoss="1.89" rerouteNo="0" devices="vehroute_flow_9_increasing_0_E_straight.1 tripinfo_flow_9_increasing_0_E_straight.1" vType="moto" speedFactor="1.16" vaporized=""/>
    <tripinfo id="flow_13_increasing_0_W_straight.1" depart="68.00" departLane="W_in_1" departPos="31.93" departSpeed="9.28" departDelay="0.66" arrival="93.00" arrivalLane="E_out_1" arrivalPos="189.60" arrivalSpeed="15.88" duration="25.00" routeLength="368.07" waitingTime="0.00" waitingCount="0" stopTime="0.00" timeLoss="1.42" rerouteNo="0" devices="vehroute_flow_13_increasing_0_W_straight.1 tripinfo_flow_13_increasing_0_W_straight.1" vType="moto" speedFactor="1.19" vaporized=""/>
    <tripinfo id="flow_1_increasing_0_N_straight.1" depart="70.00" departLane="N_in_1" departPos="121.65" departSpeed="2.92" departDelay="0.19" arrival="100.00" arrivalLane="S_out_0" arrivalPos="189.60" arrivalSpeed="15.48" duration="30.00" routeLength="278.35" waitingTime="2.00" waitingCount="1" stopTime="0.00" timeLoss="11.65" rerouteNo="0" devices="vehroute_flow_1_increasing_0_N_straight.1 tripinfo_flow_1_increasing_0_N_straight.1" vType="moto" speedFactor="1.15" vaporized=""/>
    <tripinfo id="flow_5_increasing_0_S_straight.1" depart="67.00" departLane="S_in_1" departPos="58.36" departSpeed="11.64" departDelay="0.67" arrival="103.00" arrivalLane="N_out_0" arrivalPos="189.60" arrivalSpeed="10.83" duration="36.00" routeLength="341.64" waitingTime="0.00" waitingCount="0" stopTime="0.00" timeLoss="7.11" rerouteNo="0" devices="vehroute_flow_5_increasing_0_S_straight.1 tripinfo_flow_5_increasing_0_S_straight.1" vType="moto" speedFactor="0.87" vaporized=""/>
    <tripinfo id="flow_9_increasing_0_E_straight.2" depart="129.00" departLane="E_in_1" departPos="52.87" departSpeed="0.38" departDelay="0.79" arrival="167.00" arrivalLane="W_out_0" arrivalPos="189.60" arrivalSpeed="12.61" duration="38.00" routeLength="347.13" waitingTime="4.00" waitingCount="1" stopTime="0.00" timeLoss="12.11" rerouteNo="0" devices="vehroute_flow_9_increasing_0_E_straight.2 tripinfo_flow_9_increasing_0_E_straight.2" vType="moto" speedFactor="0.99" vaporized=""/>
    <tripinfo id="flow_13_increasing_0_W_straight.2" depart="135.00" departLane="W_in_1" departPos="59.51" departSpeed="13.32" departDelay="0.32" arrival="168.00" arrivalLane="E_out_0" arrivalPos="189.60" arrivalSpeed="13.18" duration="33.00" routeLength="340.49" waitingTime="0.00" waitingCount="0" stopTime="0.00" timeLoss="7.58" rerouteNo="0" devices="vehroute_flow_13_increasing_0_W_straight.2 tripinfo_flow_13_increasing_0_W_straight.2" vType="truck" speedFactor="0.97" vaporized=""/>
    <tripinfo id="flow_5_increasing_0_S_straight.2" depart="133.00" departLane="S_in_1" departPos="12.70" departSpeed="12.41" departDelay="0.33" arrival="180.00" arrivalLane="N_out_0" arrivalPos="189.60" arrivalSpeed="12.76" duration="47.00" routeLength="387.30" waitingTime="10.00" waitingCount="1" stopTime="0.00" timeLoss="17.61" rerouteNo="0" devices="vehroute_flow_5_increasing_0_S_straight.2 tripinfo_flow_5_increasing_0_S_straight.2" vType="moto" speedFactor="0.96" vaporized=""/>
    <tripinfo id="flow_1_increasing_0_N_straight.2" depart="140.00" departLane="N_in_1" departPos="107.53" departSpeed="1.11" departDelay="0.38" arrival="181.00" arrivalLane="S_out_0" arrivalPos="189.60" arrivalSpeed="11.92" duration="41.00" routeLength="292.47" waitingTime="8.00" waitingCount="1" stopTime="0.00" timeLoss="17.57" rerouteNo="0" devices="vehroute_flow_1_increasing_0_N_straight.2 tripinfo_flow_1_increasing_0_N_straight.2" vType="moto" speedFactor="0.93" vaporized=""/>
    <tripinfo id="flow_15_increasing_0_W_right.1" depart="164.00" departLane="W_in_1" departPos="128.68" departSpeed="3.06" departDelay="0.60" arrival="191.00" arrivalLane="S_out_0" arrivalPos="189.60" arrivalSpeed="13.92" duration="27.00" routeLength="259.55" waitingTime="2.00" waitingCount="1" stopTime="0.00" timeLoss="7.66" rerouteNo="0" devices="vehroute_flow_15_increasing_0_W_right.1 tripinfo_flow_15_increasing_0_W_right.1" vType="moto" speedFactor="1.04" vaporized=""/>
    <tripinfo id="flow_14_increasing_0_W_left.1" depart="166.00" departLane="E_in_1" departPos="110.92" departSpeed="11.99" departDelay="0.16" arrival="191.00" arrivalLane="E_out_1" arrivalPos="189.60" arrivalSpeed="14.34" duration="25.00" routeLength="272.95" waitingTime="0.00" waitingCount="0" stopTime="0.00" timeLoss="4.66" rerouteNo="0" devices="vehroute_flow_14_increasing_0_W_left.1 tripinfo_flow_14_increasing_0_W_left.1" vType="moto" speedFactor="1.05" vaporized=""/>
    <tripinfo id="flow_7_increasing_0_S_right.1" depart="163.00" departLane="W_in_1" departPos="66.71" departSpeed="7.87" departDelay="0.40" arrival="199.00" arrivalLane="S_out_0" arrivalPos="189.60" arrivalSpeed="10.40" duration="36.00" routeLength="321.52" waitingTime="0.00" waitingCount="0" stopTime="0.00" timeLoss="5.44" rerouteNo="0" devices="vehroute_flow_7_increasing_0_S_right.1 tripinfo_flow_7_increasing_0_S_right.1" vType="container" speedFactor="0.78" vaporized=""/>
    <tripinfo id="flow_6_increasing_0_S_left.1" depart="166.00" departLane="S_in_0" departPos="73.90" departSpeed="9.22" departDelay="0.16" arrival="204.00" arrivalLane="W_out_1" arrivalPos="189.60" arrivalSpeed="13.70" duration="38.00" routeLength="324.65" waitingTime="8.00" waitingCount="1" stopTime="0.00" timeLoss="15.47" rerouteNo="0" devices="vehroute_flow_6_increasing_0_S_left.1 tripinfo_flow_6_increasing_0_S_left.1" vType="moto" speedFactor="1.08" vaporized=""/>
    <tripinfo id="flow_2_increasing_0_N_left.1" depart="163.00" departLane="N_in_0" departPos="8.88" departSpeed="2.82" departDelay="0.40" arrival="207.00" arrivalLane="E_out_1" arrivalPos="189.60" arrivalSpeed="15.19" duration="44.00" routeLength="389.67" waitingTime="8.00" waitingCount="2" stopTime="0.00" timeLoss="18.17" rerouteNo="0" devices="vehroute_flow_2_increasing_0_N_left.1 tripinfo_flow_2_increasing_0_N_left.1" vType="moto" speedFactor="1.12" vaporized=""/>
    <tripinfo id="flow_11_increasing_0_E_right.1" depart="170.00" departLane="S_in_0" departPos="166.00" departSpeed="1.28" departDelay="0.80" arrival="207.00" arrivalLane="N_out_0" arrivalPos="189.60" arrivalSpeed="12.07" duration="37.00" routeLength="234.00" waitingTime="9.00" waitingCount="1" stopTime="0.00" timeLoss="17.33" rerouteNo="0" devices="vehroute_flow_11_increasing_0_E_right.1 tripinfo_flow_11_increasing_0_E_right.1" vType="moto" speedFactor="0.88" vaporized=""/>
    <tripinfo id="flow_3_increasing_0_N_right.1" depart="174.00" departLane="S_in_0" departPos="93.41" departSpeed="11.76" departDelay="0.39" arrival="215.00" arrivalLane="W_out_1" arrivalPos="189.60" arrivalSpeed="12.51" duration="41.00" routeLength="305.14" waitingTime="2.00" waitingCount="1" stopTime="0.00" timeLoss="15.68" rerouteNo="0" devices="vehroute_flow_3_increasing_0_N_right.1 tripinfo_flow_3_increasing_0_N_right.1" vType="container" speedFactor="0.91" vaporized=""/>
    <tripinfo id="flow_9_increasing_0_E_straight.3" depart="193.00" departLane="E_in_0" departPos="86.42" departSpeed="8.41" departDelay="0.69" arrival="221.00" arrivalLane="W_out_0" arrivalPos="189.60" arrivalSpeed="11.79" duration="28.00" routeLength="313.58" waitingTime="0.00" waitingCount="0" stopTime="0.00" timeLoss="1.19" rerouteNo="0" devices="vehroute_flow_9_increasing_0_E_straight.3 tripinfo_flow_9_increasing_0_E_straight.3" vType="truck" speedFactor="0.85" vaporized=""/>
    <tripinfo id="flow_10_increasing_0_E_left.1" depart="170.00" departLane="E_in_1" departPos="4.52" departSpeed="3.91" departDelay="0.80" arrival="223.00" arrivalLane="S_out_0" arrivalPos="189.60" arrivalSpeed="10.13" duration="53.00" routeLength="394.03" waitingTime="7.00" waitingCount="1" stopTime="0.00" timeLoss="14.87" rerouteNo="0" devices="vehroute_flow_10_increasing_0_E_left.1 tripinfo_flow_10_increasing_0_E_left.1" vType="car" speedFactor="0.77" vaporized=""/>
    <tripinfo id="flow_5_increasing_0_S_straight.3" depart="200.00" departLane="S_in_0" departPos="184.19" departSpeed="4.95" departDelay="1.00" arrival="231.00" arrivalLane="N_out_0" arrivalPos="189.60" arrivalSpeed="14.24" duration="31.00" routeLength="215.81" waitingTime="9.00" waitingCount="1" stopTime="0.00" timeLoss="16.10" rerouteNo="0" devices="vehroute_flow_5_increasing_0_S_straight.3 tripinfo_flow_5_increasing_0_S_straight.3" vType="moto" speedFactor="1.08" vaporized=""/>
    <tripinfo id="flow_1_increasing_0_N_straight.3" depart="210.00" departLane="N_in_1" departPos="88.42" departSpeed="1.49" departDelay="0.58" arrival="235.00" arrivalLane="S_out_1" arrivalPos="189.60" arrivalSpeed="14.08" duration="25.00" routeLength="311.58" waitingTime="0.00" waitingCount="0" stopTime="0.00" timeLoss="3.20" rerouteNo="0" devices="vehroute_flow_1_increasing_0_N_straight.3 tripinfo_flow_1_increasing_0_N_straight.3" vType="moto" speedFactor="1.06" vaporized=""/>
    <tripinfo id="flow_13_increasing_0_W_straight.3" depart="203.00" departLane="W_in_0" departPos="65.01" departSpeed="6.58" departDelay="0.98" arrival="243.00" arrivalLane="E_out_0" arrivalPos="189.60" arrivalSpeed="15.40" duration="40.00" routeLength="334.99" waitingTime="10.00" waitingCount="1" stopTime="0.00" timeLoss="18.54" rerouteNo="0" devices="vehroute_flow_13_increasing_0_W_straight.3 tripinfo_flow_13_increasing_0_W_straight.3" vType="moto" speedFactor="1.20" vaporized=""/>
    <tripinfo id="flow_13_increasing_0_W_straight.4" depart="270.00" departLane="W_in_0" departPos="70.46" departSpeed="10.65" departDelay="0.64" arrival="299.00" arrivalLane="E_out_0" arrivalPos="189.60" arrivalSpeed="11.97" duration="29.00" routeLength="329.54" waitingTime="0.00" waitingCount="0" stopTime="0.00" timeLoss="0.94" rerouteNo="0" devices="vehroute_flow_13_increasing_0_W_straight.4 tripinfo_flow_13_increasing_0_W_straight.4" vType="truck" speedFactor="0.87" vaporized=""/>
    <tripinfo id="flow_9_increasing_0_E_straight.4" depart="257.00" departLane="E_in_1" departPos="53.32" departSpeed="10.34" departDelay="0.59" arrival="302.00" arrivalLane="W_out_0" arrivalPos="189.60" arrivalSpeed="12.67" duration="45.00" routeLength="346.68" waitingTime="6.00" waitingCount="1" stopTime="0.00" timeLoss="18.12" rerouteNo="0" devices="vehroute_flow_9_increasing_0_E_straight.4 tripinfo_flow_9_increasing_0_E_straight.4" vType="bus" speedFactor="0.95" vaporized=""/>
    <tripinfo id="flow_1_increasing_0_N_straight.4" depart="280.00" departLane="N_in_1" departPos="74.07" departSpeed="0.57" departDelay="0.77" arrival="309.00" arrivalLane="S_out_0" arrivalPos="189.60" arrivalSpeed="12.70" duration="29.00" routeLength="325.93" waitingTime="0.00" waitingCount="0" stopTime="0.00" timeLoss="4.12" rerouteNo="0" devices="vehroute_flow_1_increasing_0_N_straight.4 tripinfo_flow_1_increasing_0_N_straight.4" vType="car" speedFactor="0.96" vaporized=""/>
    <tripinfo id="flow_5_increasing_0_S_straight.4" depart="266.00" departLane="S_in_0" departPos="135.24" departSpeed="1.68" departDelay="0.66" arrival="317.00" arrivalLane="N_out_0" arrivalPos="189.60" arrivalSpeed="13.00" duration="51.00" routeLength="264.76" waitingTime="11.00" waitingCount="1" stopTime="0.00" timeLoss="30.72" rerouteNo="0" devices="vehroute_flow_5_increasing_0_S_straight.4 tripinfo_flow_5_increasing_0_S_straight.4" vType="container" speedFactor="0.97" vaporized=""/>
    <tripinfo id="flow_27_increasing_300_E_right.0" depart="300.00" departLane="E_in_1" departPos="174.17" departSpeed="9.64" departDelay="0.00" arrival="320.00" arrivalLane="N_out_0" arrivalPos="189.60" arrivalSpeed="15.26" duration="20.00" routeLength="214.06" waitingTime="0.00" waitingCount="0" stopTime="0.00" timeLoss="4.85" rerouteNo="0" devices="vehroute_flow_27_increasing_300_E_right.0 tripinfo_flow_27_increasing_300_E_right.0" vType="moto" speedFactor="1.10" vaporized=""/>
    <tripinfo id="flow_22_increasing_300_S_left.0" depart="300.00" departLane="W_in_0" departPos="155.68" departSpeed="8.14" departDelay="0.00" arrival="322.00" arrivalLane="E_out_0" arrivalPos="189.60" arrivalSpeed="12.16" duration="22.00" routeLength="244.32" waitingTime="0.00" waitingCount="0" stopTime="0.00" timeLoss="1.89" rerouteNo="0" devices="vehroute_flow_22_increasing_300_S_left.0 tripinfo_flow_22_increasing_300_S_left.0" vType="moto" speedFactor="0.91" vaporized=""/>
    <tripinfo id="flow_30_increasing_300_W_left.0" depart="300.00" departLane="W_in_1" departPos="148.65" departSpeed="7.44" departDelay="0.00" arrival="322.00" arrivalLane="N_out_1" arrivalPos="189.60" arrivalSpeed="14.94" duration="22.00" routeLength="249.90" waitingTime="0.00" waitingCount="0" stopTime="0.00" timeLoss="5.16" rerouteNo="0" devices="vehroute_flow_30_increasing_300_W_left.0 tripinfo_flow_30_increasing_300_W_left.0" vType="moto" speedFactor="1.10" vaporized=""/>
    <tripinfo id="flow_28_increasing_300_E_uturn.0" depart="300.00" departLane="W_in_1" departPos="172.37" departSpeed="6.07" departDelay="0.00" arrival="323.00" arrivalLane="W_out_1" arrivalPos="189.60" arrivalSpeed="11.97" duration="23.00" routeLength="211.50" waitingTime="0.00" waitingCount="0" stopTime="0.00" timeLoss="4.53" rerouteNo="0" devices="vehroute_flow_28_increasing_300_E_uturn.0 tripinfo_flow_28_increasing_300_E_uturn.0" vType="car" speedFactor="0.90" vaporized=""/>
    <tripinfo id="flow_29_increasing_300_W_straight.0" depart="300.00" departLane="W_in_0" departPos="74.60" departSpeed="1.62" departDelay="0.00" arrival="327.00" arrivalLane="E_out_0" arrivalPos="189.60" arrivalSpeed="14.07" duration="27.00" routeLength="325.40" waitingTime="0.00" waitingCount="0" stopTime="0.00" timeLoss="3.52" rerouteNo="0" devices="vehroute_flow_29_increasing_300_W_straight.0 tripinfo_flow_29_increasing_300_W_straight.0" vType="moto" speedFactor="1.02" vaporized=""/>
    <tripinfo id="flow_25_increasing_300_E_straight.0" depart="300.00" departLane="E_in_1" departPos="65.57" departSpeed="2.42" departDelay="0.00" arrival="330.00" arrivalLane="W_out_0" arrivalPos="189.60" arrivalSpeed="13.52" duration="30.00" routeLength="334.43" waitingTime="0.00" waitingCount="0" stopTime="0.00" timeLoss="6.20" rerouteNo="0" devices="vehroute_flow_25_increasing_300_E_straight.0 tripinfo_flow_25_increasing_300_E_straight.0" vType="moto" speedFactor="1.04" vaporized=""/>
    <tripinfo id="flow_26_increasing_300_E_left.0" depart="300.00" departLane="W_in_0" departPos="64.25" departSpeed="5.90" departDelay="0.00" arrival="331.00" arrivalLane="E_out_0" arrivalPos="189.60" arrivalSpeed="11.66" duration="31.00" routeLength="335.75" waitingTime="0.00" waitingCount="0" stopTime="0.00" timeLoss="4.17" rerouteNo="0" devices="vehroute_flow_26_increasing_300_E_left.0 tripinfo_flow_26_increasing_300_E_left.0" vType="moto" speedFactor="0.90" vaporized=""/>
    <tripinfo id="flow_31_increasing_300_W_right.0" depart="300.00" departLane="E_in_0" departPos="63.10" departSpeed="11.39" departDelay="0.00" arrival="333.00" arrivalLane="E_out_1" arrivalPos="189.60" arrivalSpeed="12.23" duration="33.00" routeLength="320.77" waitingTime="2.00" waitingCount="1" stopTime="0.00" timeLoss="8.30" rerouteNo="0" devices="vehroute_flow_31_increasing_300_W_right.0 tripinfo_flow_31_increasing_300_W_right.0" vType="moto" speedFactor="0.97" vaporized=""/>
    <tripinfo id="flow_18_increasing_300_N_left.0" depart="300.00" departLane="W_in_1" departPos="65.33" departSpeed="11.70" departDelay="0.00" arrival="336.00" arrivalLane="N_out_1" arrivalPos="189.60" arrivalSpeed="11.68" duration="36.00" routeLength="333.22" waitingTime="3.00" waitingCount="1" stopTime="0.00" timeLoss="8.59" rerouteNo="0" devices="vehroute_flow_18_increasing_300_N_left.0 tripinfo_flow_18_increasing_300_N_left.0" vType="moto" speedFactor="0.93" vaporized=""/>
    <tripinfo id="flow_19_increasing_300_N_right.0" depart="300.00" departLane="N_in_1" departPos="111.69" departSpeed="5.48" departDelay="0.00" arrival="336.00" arrivalLane="W_out_0" arrivalPos="189.60" arrivalSpeed="12.25" duration="36.00" routeLength="276.54" waitingTime="6.00" waitingCount="1" stopTime="0.00" timeLoss="12.84" rerouteNo="0" devices="vehroute_flow_19_increasing_300_N_right.0 tripinfo_flow_19_increasing_300_N_right.0" vType="car" speedFactor="0.91" vaporized=""/>
    <tripinfo id="flow_23_increasing_300_S_right.0" depart="300.00" departLane="S_in_1" departPos="2.77" departSpeed="8.14" departDelay="0.00" arrival="336.00" arrivalLane="E_out_0" arrivalPos="189.60" arrivalSpeed="14.55" duration="36.00" routeLength="385.46" waitingTime="0.00" waitingCount="0" stopTime="0.00" timeLoss="8.82" rerouteNo="0" devices="vehroute_flow_23_increasing_300_S_right.0 tripinfo_flow_23_increasing_300_S_right.0" vType="moto" speedFactor="1.07" vaporized=""/>
    <tripinfo id="flow_20_increasing_300_N_uturn.0" depart="300.00" departLane="S_in_1" departPos="129.09" departSpeed="4.66" departDelay="0.00" arrival="337.00" arrivalLane="N_out_0" arrivalPos="189.60" arrivalSpeed="11.20" duration="37.00" routeLength="270.91" waitingTime="7.00" waitingCount="1" stopTime="0.00" timeLoss="14.71" rerouteNo="0" devices="vehroute_flow_20_increasing_300_N_uturn.0 tripinfo_flow_20_increasing_300_N_uturn.0" vType="car" speedFactor="0.88" vaporized=""/>
    <tripinfo id="flow_21_increasing_300_S_straight.0" depart="300.00" departLane="S_in_1" departPos="19.51" departSpeed="8.19" departDelay="0.00" arrival="337.00" arrivalLane="N_out_1" arrivalPos="189.60" arrivalSpeed="13.03" duration="37.00" routeLength="380.49" waitingTime="2.00" waitingCount="1" stopTime="0.00" timeLoss="9.91" rerouteNo="0" devices="vehroute_flow_21_increasing_300_S_straight.0 tripinfo_flow_21_increasing_300_S_straight.0" vType="moto" speedFactor="1.03" vaporized=""/>
    <tripinfo id="flow_24_increasing_300_S_uturn.0" depart="300.00" departLane="N_in_0" departPos="91.52" departSpeed="14.07" departDelay="0.00" arrival="337.00" arrivalLane="W_out_0" arrivalPos="189.60" arrivalSpeed="13.43" duration="37.00" routeLength="296.71" waitingTime="5.00" waitingCount="1" stopTime="0.00" timeLoss="17.71" rerouteNo="0" devices="vehroute_flow_24_increasing_300_S_uturn.0 tripinfo_flow_24_increasing_300_S_uturn.0" vType="moto" speedFactor="1.14" vaporized=""/>
    <tripinfo id="flow_17_increasing_300_N_straight.0" depart="300.00" departLane="N_in_1" departPos="160.30" departSpeed="12.75" departDelay="0.00" arrival="338.00" arrivalLane="S_out_0" arrivalPos="189.60" arrivalSpeed="12.25" duration="38.00" routeLength="239.70" waitingTime="12.00" waitingCount="1" stopTime="0.00" timeLoss="19.33" rerouteNo="0" devices="vehroute_flow_17_increasing_300_N_straight.0 tripinfo_flow_17_increasing_300_N_straight.0" vType="car" speedFactor="0.94" vaporized=""/>
    <tripinfo id="flow_32_increasing_300_W_uturn.0" depart="300.00" departLane="W_in_1" departPos="61.32" departSpeed="2.08" departDelay="0.00" arrival="348.00" arrivalLane="N_out_1" arrivalPos="189.60" arrivalSpeed="13.15" duration="48.00" routeLength="337.23" waitingTime="16.00" waitingCount="1" stopTime="0.00" timeLoss="22.32" rerouteNo="0" devices="vehroute_flow_32_increasing_300_W_uturn.0 tripinfo_flow_32_increasing_300_W_uturn.0" vType="moto" speedFactor="0.98" vaporized=""/>
    <tripinfo id="flow_25_increasing_300_E_straight.1" depart="347.00" departLane="E_in_0" departPos="69.49" departSpeed="6.23" departDelay="0.85" arrival="373.00" arrivalLane="W_out_0" arrivalPos="189.60" arrivalSpeed="13.78" duration="26.00" routeLength="330.51" waitingTime="0.00" waitingCount="0" stopTime="0.00" timeLoss="2.18" rerouteNo="0" devices="vehroute_flow_25_increasing_300_E_straight.1 tripinfo_flow_25_increasing_300_E_straight.1" vType="moto" speedFactor="1.01" vaporized=""/>
    <tripinfo id="flow_17_increasing_300_N_straight.1" depart="351.00" departLane="N_in_0" departPos="43.18" departSpeed="3.34" departDelay="0.74" arrival="387.00" arrivalLane="S_out_0" arrivalPos="189.60" arrivalSpeed="14.73" duration="36.00" routeLength="356.82" waitingTime="2.00" waitingCount="1" stopTime="0.00" timeLoss="11.70" rerouteNo="0" devices="vehroute_flow_17_increasing_300_N_straight.1 tripinfo_flow_17_increasing_300_N_straight.1" vType="moto" speedFactor="1.06" vaporized=""/>
    <tripinfo id="flow_21_increasing_300_S_straight.1" depart="350.00" departLane="S_in_1" departPos="109.89" departSpeed="1.98" departDelay="0.52" arrival="393.00" arrivalLane="N_out_0" arrivalPos="189.60" arrivalSpeed="12.37" duration="43.00" routeLength="290.11" waitingTime="4.00" waitingCount="1" stopTime="0.00" timeLoss="19.07" rerouteNo="0" devices="vehroute_flow_21_increasing_300_S_straight.1 tripinfo_flow_21_increasing_300_S_straight.1" vType="truck" speedFactor="0.90" vaporized=""/>