<?xml version="1.0" encoding="UTF-8"?>

<!-- generated on 2025-12-09 21:35:54 by Eclipse SUMO sumo Version 1.18.0
<configuration xmlns:xsi="http://www.w3.org/2001/XMLSchema-instance" xsi:noNamespaceSchemaLocation="http://sumo.dlr.de/xsd/sumoConfiguration.xsd">

    <input>
        <net-file value="/workspace/nets/120p4k/net.net.xml"/>
        <route-files value="/workspace/nets/120p4k/route_temp_334_123834910177792_74393419.rou.xml"/>
    </input>

    <output>
        <summary-output value="results/summary_ep_3.xml"/>
        <tripinfo-output value="results/tripinfo_ep_3.xml"/>
        <vehroute-output value="results/vehroute_ep_3.xml"/>
    </output>

    <time>
        <begin value="0"/>
    </time>

    <report>
        <verbose value="true"/>
        <no-step-log value="true"/>
    </report>

    <traci_server>
        <remote-port value="40489"/>
    </traci_server>

    <gui_only>
        <gui-settings-file value="/workspace/nets/120p4k/gui-settings.xml"/>
        <quit-on-end value="true"/>
    </gui_only>

</configuration>
-->

<tripinfos xmlns:xsi="http://www.w3.org/2001/XMLSchema-instance" xsi:noNamespaceSchemaLocation="http://sumo.dlr.de/xsd/tripinfo_file.xsd">
    <tripinfo id="flow_9_increasing_0_E_straight.0" depart="0.00" departLane="S_in_0" departPos="168.29" departSpeed="10.73" departDelay="0.00" arrival="19.00" arrivalLane="N_out_0" arrivalPos="189.60" arrivalSpeed="12.05" duration="19.00" routeLength="231.71" waitingTime="0.00" waitingCount="0" stopTime="0.00" timeLoss="0.83" rerouteNo="0" devices="vehroute_flow_9_increasing_0_E_straight.0 tripinfo_flow_9_increasing_0_E_straight.0" vType="car" speedFactor="0.94" vaporized=""/>
    <tripinfo id="flow_8_increasing_0_S_uturn.0" depart="0.00" departLane="S_in_0" departPos="120.11" departSpeed="4.48" departDelay="0.00" arrival="24.00" arrivalLane="S_out_1" arrivalPos="189.60" arrivalSpeed="13.41" duration="24.00" routeLength="263.76" waitingTime="0.00" waitingCount="0" stopTime="0.00" timeLoss="4.92" rerouteNo="0" devices="vehroute_flow_8_increasing_0_S_uturn.0 tripinfo_flow_8_increasing_0_S_uturn.0" vType="moto" speedFactor="1.05" vaporized=""/>
    <tripinfo id="flow_6_increasing_0_S_left.0" depart="0.00" departLane="S_in_1" departPos="166.01" departSpeed="0.74" departDelay="0.00" arrival="25.00" arrivalLane="W_out_1" arrivalPos="189.60" arrivalSpeed="11.64" duration="25.00" routeLength="232.54" waitingTime="0.00" waitingCount="0" stopTime="0.00" timeLoss="4.45" rerouteNo="0" devices="vehroute_flow_6_increasing_0_S_left.0 tripinfo_flow_6_increasing_0_S_left.0" vType="moto" speedFactor="0.88" vaporized=""/>
    <tripinfo id="flow_4_increasing_0_N_uturn.0" depart="0.00" departLane="N_in_1" departPos="127.60" departSpeed="0.08" departDelay="0.00" arrival="27.00" arrivalLane="N_out_1" arrivalPos="189.60" arrivalSpeed="11.70" duration="27.00" routeLength="256.27" waitingTime="0.00" waitingCount="0" stopTime="0.00" timeLoss="6.11" rerouteNo="0" devices="vehroute_flow_4_increasing_0_N_uturn.0 tripinfo_flow_4_increasing_0_N_uturn.0" vType="moto" speedFactor="0.91" vaporized=""/>
    <tripinfo id="flow_14_increasing_0_W_left.0" depart="0.00" departLane="S_in_1" departPos="42.31" departSpeed="3.71" departDelay="0.00" arrival="31.00" arrivalLane="W_out_1" arrivalPos="189.60" arrivalSpeed="12.78" duration="31.00" routeLength="356.24" waitingTime="0.00" waitingCount="0" stopTime="0.00" timeLoss="4.56" rerouteNo="0" devices="vehroute_flow_14_increasing_0_W_left.0 tripinfo_flow_14_increasing_0_W_left.0" vType="moto" speedFactor="1.01" vaporized=""/>
    <tripinfo id="flow_13_increasing_0_W_straight.0" depart="0.00" departLane="N_in_0" departPos="77.99" departSpeed="3.97" departDelay="0.00" arrival="33.00" arrivalLane="E_out_1" arrivalPos="189.60" arrivalSpeed="11.96" duration="33.00" routeLength="320.56" waitingTime="0.00" waitingCount="0" stopTime="0.00" timeLoss="5.01" rerouteNo="0" devices="vehroute_flow_13_increasing_0_W_straight.0 tripinfo_flow_13_increasing_0_W_straight.0" vType="bus" speedFactor="0.86" vaporized=""/>
    <tripinfo id="flow_16_increasing_0_W_uturn.0" depart="0.00" departLane="W_in_1" departPos="126.68" departSpeed="1.28" departDelay="0.00" arrival="35.00" arrivalLane="W_out_1" arrivalPos="189.60" arrivalSpeed="13.38" duration="35.00" routeLength="257.19" waitingTime="7.00" waitingCount="1" stopTime="0.00" timeLoss="15.93" rerouteNo="0" devices="vehroute_flow_16_increasing_0_W_uturn.0 tripinfo_flow_16_increasing_0_W_uturn.0" vType="moto" speedFactor="1.04" vaporized=""/>
    <tripinfo id="flow_10_increasing_0_E_left.0" depart="0.00" departLane="E_in_0" departPos="44.88" departSpeed="8.19" departDelay="0.00" arrival="36.00" arrivalLane="S_out_1" arrivalPos="189.60" arrivalSpeed="14.14" duration="36.00" routeLength="353.67" waitingTime="4.00" waitingCount="1" stopTime="0.00" timeLoss="11.35" rerouteNo="0" devices="vehroute_flow_10_increasing_0_E_left.0 tripinfo_flow_10_increasing_0_E_left.0" vType="car" speedFactor="1.08" vaporized=""/>
    <tripinfo id="flow_3_increasing_0_N_right.0" depart="0.00" departLane="W_in_0" departPos="103.38" departSpeed="3.81" departDelay="0.00" arrival="37.00" arrivalLane="W_out_1" arrivalPos="189.60" arrivalSpeed="14.77" duration="37.00" routeLength="280.49" waitingTime="7.00" waitingCount="1" stopTime="0.00" timeLoss="16.99" rerouteNo="0" devices="vehroute_flow_3_increasing_0_N_right.0 tripinfo_flow_3_increasing_0_N_right.0" vType="moto" speedFactor="1.11" vaporized=""/>
    <tripinfo id="flow_5_increasing_0_S_straight.0" depart="0.00" departLane="E_in_1" departPos="107.37" departSpeed="7.21" departDelay="0.00" arrival="39.00" arrivalLane="N_out_1" arrivalPos="189.60" arrivalSpeed="15.82" duration="39.00" routeLength="280.86" waitingTime="8.00" waitingCount="1" stopTime="0.00" timeLoss="20.46" rerouteNo="0" devices="vehroute_flow_5_increasing_0_S_straight.0 tripinfo_flow_5_increasing_0_S_straight.0" vType="moto" speedFactor="1.15" vaporized=""/>
    <tripinfo id="flow_12_increasing_0_E_uturn.0" depart="0.00" departLane="E_in_0" departPos="5.65" departSpeed="13.76" departDelay="0.00" arrival="39.00" arrivalLane="E_out_1" arrivalPos="189.60" arrivalSpeed="13.97" duration="39.00" routeLength="378.22" waitingTime="3.00" waitingCount="1" stopTime="0.00" timeLoss="10.96" rerouteNo="0" devices="vehroute_flow_12_increasing_0_E_uturn.0 tripinfo_flow_12_increasing_0_E_uturn.0" vType="moto" speedFactor="1.03" vaporized=""/>
    <tripinfo id="flow_15_increasing_0_W_right.0" depart="0.00" departLane="W_in_1" departPos="45.77" departSpeed="6.73" departDelay="0.00" arrival="39.00" arrivalLane="S_out_0" arrivalPos="189.60" arrivalSpeed="10.73" duration="39.00" routeLength="342.46" waitingTime="1.00" waitingCount="1" stopTime="0.00" timeLoss="8.43" rerouteNo="0" devices="vehroute_flow_15_increasing_0_W_right.0 tripinfo_flow_15_increasing_0_W_right.0" vType="moto" speedFactor="0.85" vaporized=""/>
    <tripinfo id="flow_11_increasing_0_E_right.0" depart="0.00" departLane="E_in_1" departPos="144.95" departSpeed="4.02" departDelay="0.00" arrival="40.00" arrivalLane="N_out_0" arrivalPos="189.60" arrivalSpeed="13.10" duration="40.00" routeLength="243.28" waitingTime="9.00" waitingCount="1" stopTime="0.00" timeLoss="20.56" rerouteNo="0" devices="vehroute_flow_11_increasing_0_E_right.0 tripinfo_flow_11_increasing_0_E_right.0" vType="bus" speedFactor="0.96" vaporized=""/>
    <tripinfo id="flow_2_increasing_0_N_left.0" depart="0.00" departLane="N_in_1" departPos="8.27" departSpeed="8.33" departDelay="0.00" arrival="49.00" arrivalLane="E_out_1" arrivalPos="189.60" arrivalSpeed="13.08" duration="49.00" routeLength="390.28" waitingTime="12.00" waitingCount="1" stopTime="0.00" timeLoss="20.06" rerouteNo="0" devices="vehroute_flow_2_increasing_0_N_left.0 tripinfo_flow_2_increasing_0_N_left.0" vType="moto" speedFactor="1.02" vaporized=""/>
    <tripinfo id="flow_7_increasing_0_S_right.0" depart="0.00" departLane="S_in_0" departPos="8.76" departSpeed="8.47" departDelay="0.00" arrival="54.00" arrivalLane="E_out_0" arrivalPos="189.60" arrivalSpeed="12.03" duration="54.00" routeLength="379.47" waitingTime="11.00" waitingCount="1" stopTime="0.00" timeLoss="21.62" rerouteNo="0" devices="vehroute_flow_7_increasing_0_S_right.0 tripinfo_flow_7_increasing_0_S_right.0" vType="bus" speedFactor="0.89" vaporized=""/>
    <tripinfo id="flow_1_increasing_0_N_straight.0" depart="0.00" departLane="N_in_0" departPos="8.62" departSpeed="8.51" departDelay="0.00" arrival="55.00" arrivalLane="S_out_0" arrivalPos="189.60" arrivalSpeed="11.68" duration="55.00" routeLength="391.38" waitingTime="11.00" waitingCount="1" stopTime="0.00" timeLoss="21.38" rerouteNo="0" devices="vehroute_flow_1_increasing_0_N_straight.0 tripinfo_flow_1_increasing_0_N_straight.0" vType="truck" speedFactor="0.86" vaporized=""/>
    <tripinfo id="flow_5_increasing_0_S_straight.1" depart="67.00" departLane="E_in_1" departPos="58.36" departSpeed="11.64" departDelay="0.67" arrival="98.00" arrivalLane="N_out_0" arrivalPos="189.60" arrivalSpeed="12.01" duration="31.00" routeLength="329.87" waitingTime="0.00" waitingCount="0" stopTime="0.00" timeLoss="3.18" rerouteNo="0" devices="vehroute_flow_5_increasing_0_S_straight.1 tripinfo_flow_5_increasing_0_S_straight.1" vType="moto" speedFactor="0.87" vaporized=""/>
    <tripinfo id="flow_9_increasing_0_E_straight.1" depart="65.00" departLane="S_in_0" departPos="131.13" departSpeed="9.54" departDelay="0.90" arrival="100.00" arrivalLane="N_out_0" arrivalPos="189.60" arrivalSpeed="15.49" duration="35.00" routeLength="268.87" waitingTime="9.00" waitingCount="1" stopTime="0.00" timeLoss="17.30" rerouteNo="0" devices="vehroute_flow_9_increasing_0_E_straight.1 tripinfo_flow_9_increasing_0_E_straight.1" vType="moto" speedFactor="1.16" vaporized=""/>
    <tripinfo id="flow_1_increasing_0_N_straight.1" depart="70.00" departLane="N_in_1" departPos="121.65" departSpeed="2.92" departDelay="0.19" arrival="100.00" arrivalLane="S_out_0" arrivalPos="189.60" arrivalSpeed="14.69" duration="30.00" routeLength="278.35" waitingTime="3.00" waitingCount="1" stopTime="0.00" timeLoss="12.13" rerouteNo="0" devices="vehroute_flow_1_increasing_0_N_straight.1 tripinfo_flow_1_increasing_0_N_straight.1" vType="moto" speedFactor="1.15" vaporized=""/>
    <tripinfo id="flow_13_increasing_0_W_straight.1" depart="68.00" departLane="N_in_1" departPos="31.93" departSpeed="9.28" departDelay="0.66" arrival="103.00" arrivalLane="E_out_1" arrivalPos="189.60" arrivalSpeed="15.53" duration="35.00" routeLength="366.62" waitingTime="2.00" waitingCount="1" stopTime="0.00" timeLoss="11.14" rerouteNo="0" devices="vehroute_flow_13_increasing_0_W_straight.1 tripinfo_flow_13_increasing_0_W_straight.1" vType="moto" speedFactor="1.19" vaporized=""/>
    <tripinfo id="flow_9_increasing_0_E_straight.2" depart="129.00" departLane="S_in_1" departPos="52.87" departSpeed="0.38" departDelay="0.79" arrival="163.00" arrivalLane="N_out_0" arrivalPos="189.60" arrivalSpeed="12.85" duration="34.00" routeLength="347.13" waitingTime="0.00" waitingCount="0" stopTime="0.00" timeLoss="8.38" rerouteNo="0" devices="vehroute_flow_9_increasing_0_E_straight.2 tripinfo_flow_9_increasing_0_E_straight.2" vType="moto" speedFactor="0.99" vaporized=""/>
    <tripinfo id="flow_1_increasing_0_N_straight.2" depart="140.00" departLane="N_in_1" departPos="107.53" departSpeed="1.11" departDelay="0.38" arrival="167.00" arrivalLane="S_out_0" arrivalPos="189.60" arrivalSpeed="12.00" duration="27.00" routeLength="292.47" waitingTime="0.00" waitingCount="0" stopTime="0.00" timeLoss="4.25" rerouteNo="0" devices="vehroute_flow_1_increasing_0_N_straight.2 tripinfo_flow_1_increasing_0_N_straight.2" vType="moto" speedFactor="0.93" vaporized=""/>
    <tripinfo id="flow_13_increasing_0_W_straight.2" depart="135.00" departLane="N_in_1" departPos="59.51" departSpeed="13.32" departDelay="0.32" arrival="170.00" arrivalLane="E_out_1" arrivalPos="189.60" arrivalSpeed="13.24" duration="35.00" routeLength="339.04" waitingTime="0.00" waitingCount="0" stopTime="0.00" timeLoss="8.50" rerouteNo="0" devices="vehroute_flow_13_increasing_0_W_straight.2 tripinfo_flow_13_increasing_0_W_straight.2" vType="truck" speedFactor="0.97" vaporized=""/>
    <tripinfo id="flow_5_increasing_0_S_straight.2" depart="133.00" departLane="E_in_1" departPos="12.70" departSpeed="12.41" departDelay="0.33" arrival="176.00" arrivalLane="N_out_0" arrivalPos="189.60" arrivalSpeed="12.69" duration="43.00" routeLength="375.53" waitingTime="7.00" waitingCount="1" stopTime="0.00" timeLoss="13.84" rerouteNo="0" devices="vehroute_flow_5_increasing_0_S_straight.2 tripinfo_flow_5_increasing_0_S_straight.2" vType="moto" speedFactor="0.96" vaporized=""/>
    <tripinfo id="flow_14_increasing_0_W_left.1" depart="166.00" departLane="S_in_1" departPos="110.92" departSpeed="11.99" departDelay="0.16" arrival="189.00" arrivalLane="W_out_1" arrivalPos="189.60" arrivalSpeed="14.23" duration="23.00" routeLength="287.63" waitingTime="0.00" waitingCount="0" stopTime="0.00" timeLoss="2.49" rerouteNo="0" devices="vehroute_flow_14_increasing_0_W_left.1 tripinfo_flow_14_increasing_0_W_left.1" vType="moto" speedFactor="1.05" vaporized=""/>
    <tripinfo id="flow_6_increasing_0_S_left.1" depart="166.00" departLane="S_in_0" departPos="73.90" departSpeed="7.48" departDelay="0.16" arrival="192.00" arrivalLane="W_out_1" arrivalPos="189.60" arrivalSpeed="13.83" duration="26.00" routeLength="324.65" waitingTime="0.00" waitingCount="0" stopTime="0.00" timeLoss="3.50" rerouteNo="0" devices="vehroute_flow_6_increasing_0_S_left.1 tripinfo_flow_6_increasing_0_S_left.1" vType="moto" speedFactor="1.08" vaporized=""/>
    <tripinfo id="flow_2_increasing_0_N_left.1" depart="163.00" departLane="N_in_0" departPos="8.88" departSpeed="2.82" departDelay="0.40" arrival="193.00" arrivalLane="E_out_1" arrivalPos="189.60" arrivalSpeed="14.65" duration="30.00" routeLength="389.67" waitingTime="0.00" waitingCount="0" stopTime="0.00" timeLoss="4.36" rerouteNo="0" devices="vehroute_flow_2_increasing_0_N_left.1 tripinfo_flow_2_increasing_0_N_left.1" vType="moto" speedFactor="1.12" vaporized=""/>
    <tripinfo id="flow_7_increasing_0_S_right.1" depart="163.00" departLane="S_in_1" departPos="66.71" departSpeed="7.87" departDelay="0.40" arrival="199.00" arrivalLane="E_out_0" arrivalPos="189.60" arrivalSpeed="10.44" duration="36.00" routeLength="321.52" waitingTime="0.00" waitingCount="0" stopTime="0.00" timeLoss="5.34" rerouteNo="0" devices="vehroute_flow_7_increasing_0_S_right.1 tripinfo_flow_7_increasing_0_S_right.1" vType="container" speedFactor="0.78" vaporized=""/>
    <tripinfo id="flow_15_increasing_0_W_right.1" depart="164.00" departLane="W_in_1" departPos="128.68" departSpeed="3.06" departDelay="0.60" arrival="201.00" arrivalLane="S_out_0" arrivalPos="189.60" arrivalSpeed="13.56" duration="37.00" routeLength="259.55" waitingTime="10.00" waitingCount="1" stopTime="0.00" timeLoss="18.06" rerouteNo="0" devices="vehroute_flow_15_increasing_0_W_right.1 tripinfo_flow_15_increasing_0_W_right.1" vType="moto" speedFactor="1.04" vaporized=""/>
    <tripinfo id="flow_11_increasing_0_E_right.1" depart="170.00" departLane="E_in_0" departPos="19.85" departSpeed="3.71" departDelay="0.80" arrival="206.00" arrivalLane="N_out_0" arrivalPos="189.60" arrivalSpeed="11.22" duration="36.00" routeLength="368.38" waitingTime="0.00" waitingCount="0" stopTime="0.00" timeLoss="4.62" rerouteNo="0" devices="vehroute_flow_11_increasing_0_E_right.1 tripinfo_flow_11_increasing_0_E_right.1" vType="moto" speedFactor="0.88" vaporized=""/>
    <tripinfo id="flow_10_increasing_0_E_left.1" depart="170.00" departLane="E_in_1" departPos="185.21" departSpeed="3.91" departDelay="0.80" arrival="207.00" arrivalLane="S_out_0" arrivalPos="189.60" arrivalSpeed="10.34" duration="37.00" routeLength="213.34" waitingTime="11.00" waitingCount="1" stopTime="0.00" timeLoss="15.89" rerouteNo="0" devices="vehroute_flow_10_increasing_0_E_left.1 tripinfo_flow_10_increasing_0_E_left.1" vType="car" speedFactor="0.77" vaporized=""/>
    <tripinfo id="flow_3_increasing_0_N_right.1" depart="174.00" departLane="W_in_1" departPos="175.36" departSpeed="7.25" departDelay="0.39" arrival="208.00" arrivalLane="W_out_0" arrivalPos="189.60" arrivalSpeed="12.43" duration="34.00" routeLength="208.51" waitingTime="6.00" waitingCount="1" stopTime="0.00" timeLoss="16.43" rerouteNo="0" devices="vehroute_flow_3_increasing_0_N_right.1 tripinfo_flow_3_increasing_0_N_right.1" vType="container" speedFactor="0.91" vaporized=""/>
    <tripinfo id="flow_9_increasing_0_E_straight.3" depart="193.00" departLane="S_in_0" departPos="134.76" departSpeed="5.03" departDelay="0.69" arrival="218.00" arrivalLane="N_out_0" arrivalPos="189.60" arrivalSpeed="11.07" duration="25.00" routeLength="265.24" waitingTime="0.00" waitingCount="0" stopTime="0.00" timeLoss="2.45" rerouteNo="0" devices="vehroute_flow_9_increasing_0_E_straight.3 tripinfo_flow_9_increasing_0_E_straight.3" vType="truck" speedFactor="0.85" vaporized=""/>
    <tripinfo id="flow_5_increasing_0_S_straight.3" depart="200.00" departLane="E_in_1" departPos="108.76" departSpeed="13.07" departDelay="1.00" arrival="227.00" arrivalLane="N_out_0" arrivalPos="189.60" arrivalSpeed="13.81" duration="27.00" routeLength="279.47" waitingTime="0.00" waitingCount="0" stopTime="0.00" timeLoss="7.09" rerouteNo="0" devices="vehroute_flow_5_increasing_0_S_straight.3 tripinfo_flow_5_increasing_0_S_straight.3" vType="moto" speedFactor="1.08" vaporized=""/>
    <tripinfo id="flow_1_increasing_0_N_straight.3" depart="210.00" departLane="N_in_0" departPos="19.25" departSpeed="10.28" departDelay="0.58" arrival="238.00" arrivalLane="S_out_0" arrivalPos="189.60" arrivalSpeed="14.51" duration="28.00" routeLength="380.75" waitingTime="0.00" waitingCount="0" stopTime="0.00" timeLoss="2.09" rerouteNo="0" devices="vehroute_flow_1_increasing_0_N_straight.3 tripinfo_flow_1_increasing_0_N_straight.3" vType="moto" speedFactor="1.06" vaporized=""/>
    <tripinfo id="flow_13_increasing_0_W_straight.3" depart="203.00" departLane="N_in_1" departPos="77.94" departSpeed="4.74" departDelay="0.98" arrival="240.00" arrivalLane="E_out_1" arrivalPos="189.60" arrivalSpeed="15.86" duration="37.00" routeLength="320.61" waitingTime="7.00" waitingCount="1" stopTime="0.00" timeLoss="16.01" rerouteNo="0" devices="vehroute_flow_13_increasing_0_W_straight.3 tripinfo_flow_13_increasing_0_W_straight.3" vType="moto" speedFactor="1.20" vaporized=""/>
    <tripinfo id="flow_9_increasing_0_E_straight.4" depart="257.00" departLane="S_in_0" departPos="148.08" departSpeed="8.76" departDelay="0.59" arrival="299.00" arrivalLane="N_out_0" arrivalPos="189.60" arrivalSpeed="12.65" duration="42.00" routeLength="251.92" waitingTime="9.00" waitingCount="1" stopTime="0.00" timeLoss="22.52" rerouteNo="0" devices="vehroute_flow_9_increasing_0_E_straight.4 tripinfo_flow_9_increasing_0_E_straight.4" vType="bus" speedFactor="0.95" vaporized=""/>
    <tripinfo id="flow_13_increasing_0_W_straight.4" depart="270.00" departLane="N_in_0" departPos="167.23" departSpeed="1.71" departDelay="0.64" arrival="307.00" arrivalLane="E_out_1" arrivalPos="189.60" arrivalSpeed="11.58" duration="37.00" routeLength="231.32" waitingTime="4.00" waitingCount="1" stopTime="0.00" timeLoss="16.23" rerouteNo="0" devices="vehroute_flow_13_increasing_0_W_straight.4 tripinfo_flow_13_increasing_0_W_straight.4" vType="truck" speedFactor="0.87" vaporized=""/>
    <tripinfo id="flow_5_increasing_0_S_straight.4" depart="266.00" departLane="E_in_1" departPos="23.57" departSpeed="9.61" departDelay="0.66" arrival="312.00" arrivalLane="N_out_0" arrivalPos="189.60" arrivalSpeed="12.99" duration="46.00" routeLength="364.66" waitingTime="6.00" waitingCount="1" stopTime="0.00" timeLoss="17.77" rerouteNo="0" devices="vehroute_flow_5_increasing_0_S_straight.4 tripinfo_flow_5_increasing_0_S_straight.4" vType="container" speedFactor="0.97" vaporized=""/>
    <tripinfo id="flow_1_increasing_0_N_straight.4" depart="280.00" departLane="N_in_0" departPos="8.08" departSpeed="6.42" departDelay="0.77" arrival="320.00" arrivalLane="S_out_0" arrivalPos="189.60" arrivalSpeed="13.11" duration="40.00" routeLength="391.92" waitingTime="1.00" waitingCount="1" stopTime="0.00" timeLoss="10.04" rerouteNo="0" devices="vehroute_flow_1_increasing_0_N_straight.4 tripinfo_flow_1_increasing_0_N_straight.4" vType="car" speedFactor="0.96" vaporized=""/>
    <tripinfo id="flow_23_increasing_300_S_right.0" depart="300.00" departLane="S_in_0" departPos="104.14" departSpeed="12.09" departDelay="0.00" arrival="323.00" arrivalLane="E_out_0" arrivalPos="189.60" arrivalSpeed="14.22" duration="23.00" routeLength="284.09" waitingTime="0.00" waitingCount="0" stopTime="0.00" timeLoss="3.33" rerouteNo="0" devices="vehroute_flow_23_increasing_300_S_right.0 tripinfo_flow_23_increasing_300_S_right.0" vType="moto" speedFactor="1.07" vaporized=""/>
    <tripinfo id="flow_19_increasing_300_N_right.0" depart="300.00" departLane="N_in_0" departPos="81.69" departSpeed="8.43" departDelay="0.00" arrival="327.00" arrivalLane="S_out_0" arrivalPos="189.60" arrivalSpeed="11.79" duration="27.00" routeLength="318.31" waitingTime="0.00" waitingCount="0" stopTime="0.00" timeLoss="1.28" rerouteNo="0" devices="vehroute_flow_19_increasing_300_N_right.0 tripinfo_flow_19_increasing_300_N_right.0" vType="car" speedFactor="0.91" vaporized=""/>
    <tripinfo id="flow_21_increasing_300_S_straight.0" depart="300.00" departLane="S_in_1" departPos="108.70" departSpeed="8.47" departDelay="0.00" arrival="329.00" arrivalLane="N_out_0" arrivalPos="189.60" arrivalSpeed="14.06" duration="29.00" routeLength="291.30" waitingTime="0.00" waitingCount="0" stopTime="0.00" timeLoss="8.46" rerouteNo="0" devices="vehroute_flow_21_increasing_300_S_straight.0 tripinfo_flow_21_increasing_300_S_straight.0" vType="moto" speedFactor="1.03" vaporized=""/>
    <tripinfo id="flow_22_increasing_300_S_left.0" depart="300.00" departLane="S_in_0" departPos="121.56" departSpeed="10.88" departDelay="0.00" arrival="331.00" arrivalLane="W_out_1" arrivalPos="189.60" arrivalSpeed="12.06" duration="31.00" routeLength="276.99" waitingTime="2.00" waitingCount="1" stopTime="0.00" timeLoss="8.15" rerouteNo="0" devices="vehroute_flow_22_increasing_300_S_left.0 tripinfo_flow_22_increasing_300_S_left.0" vType="moto" speedFactor="0.91" vaporized=""/>
    <tripinfo id="flow_27_increasing_300_E_right.0" depart="300.00" departLane="E_in_1" departPos="124.88" departSpeed="0.01" departDelay="0.00" arrival="331.00" arrivalLane="N_out_0" arrivalPos="189.60" arrivalSpeed="15.07" duration="31.00" routeLength="263.35" waitingTime="3.00" waitingCount="1" stopTime="0.00" timeLoss="13.01" rerouteNo="0" devices="vehroute_flow_27_increasing_300_E_right.0 tripinfo_flow_27_increasing_300_E_right.0" vType="moto" speedFactor="1.10" vaporized=""/>
    <tripinfo id="flow_17_increasing_300_N_straight.0" depart="300.00" departLane="W_in_0" departPos="185.47" departSpeed="4.13" departDelay="0.00" arrival="332.00" arrivalLane="S_out_0" arrivalPos="189.60" arrivalSpeed="12.96" duration="32.00" routeLength="202.76" waitingTime="11.00" waitingCount="1" stopTime="0.00" timeLoss="15.78" rerouteNo="0" devices="vehroute_flow_17_increasing_300_N_straight.0 tripinfo_flow_17_increasing_300_N_straight.0" vType="car" speedFactor="0.94" vaporized=""/>
    <tripinfo id="flow_18_increasing_300_N_left.0" depart="300.00" departLane="N_in_1" departPos="171.48" departSpeed="1.99" departDelay="0.00" arrival="334.00" arrivalLane="E_out_1" arrivalPos="189.60" arrivalSpeed="12.34" duration="34.00" routeLength="227.07" waitingTime="8.00" waitingCount="1" stopTime="0.00" timeLoss="14.75" rerouteNo="0" devices="vehroute_flow_18_increasing_300_N_left.0 tripinfo_flow_18_increasing_300_N_left.0" vType="moto" speedFactor="0.93" vaporized=""/>
    <tripinfo id="flow_25_increasing_300_E_straight.0" depart="300.00" departLane="E_in_0" departPos="31.76" departSpeed="13.05" departDelay="0.00" arrival="334.00" arrivalLane="W_out_0" arrivalPos="189.60" arrivalSpeed="13.75" duration="34.00" routeLength="368.24" waitingTime="0.00" waitingCount="0" stopTime="0.00" timeLoss="8.20" rerouteNo="0" devices="vehroute_flow_25_increasing_300_E_straight.0 tripinfo_flow_25_increasing_300_E_straight.0" vType="moto" speedFactor="1.04" vaporized=""/>
    <tripinfo id="flow_31_increasing_300_W_right.0" depart="300.00" departLane="W_in_1" departPos="177.50" departSpeed="6.58" departDelay="0.00" arrival="334.00" arrivalLane="S_out_0" arrivalPos="189.60" arrivalSpeed="12.84" duration="34.00" routeLength="210.73" waitingTime="13.00" waitingCount="1" stopTime="0.00" timeLoss="17.40" rerouteNo="0" devices="vehroute_flow_31_increasing_300_W_right.0 tripinfo_flow_31_increasing_300_W_right.0" vType="moto" speedFactor="0.97" vaporized=""/>
    <tripinfo id="flow_30_increasing_300_W_left.0" depart="300.00" departLane="E_in_1" departPos="74.60" departSpeed="10.56" departDelay="0.00" arrival="337.00" arrivalLane="W_out_1" arrivalPos="189.60" arrivalSpeed="14.91" duration="37.00" routeLength="325.40" waitingTime="2.00" waitingCount="1" stopTime="0.00" timeLoss="15.06" rerouteNo="0" devices="vehroute_flow_30_increasing_300_W_left.0 tripinfo_flow_30_increasing_300_W_left.0" vType="moto" speedFactor="1.10" vaporized=""/>
    <tripinfo id="flow_26_increasing_300_E_left.0" depart="300.00" departLane="E_in_1" departPos="89.17" departSpeed="10.00" departDelay="0.00" arrival="338.00" arrivalLane="S_out_1" arrivalPos="189.60" arrivalSpeed="11.94" duration="38.00" routeLength="309.38" waitingTime="4.00" waitingCount="2" stopTime="0.00" timeLoss="11.79" rerouteNo="0" devices="vehroute_flow_26_increasing_300_E_left.0 tripinfo_flow_26_increasing_300_E_left.0" vType="moto" speedFactor="0.90" vaporized=""/>
    <tripinfo id="flow_24_increasing_300_S_uturn.0" depart="300.00" departLane="N_in_1" departPos="168.21" departSpeed="0.36" departDelay="0.00" arrival="339.00" arrivalLane="E_out_1" arrivalPos="189.60" arrivalSpeed="15.45" duration="39.00" routeLength="230.34" waitingTime="13.00" waitingCount="2" stopTime="0.00" timeLoss="23.81" rerouteNo="0" devices="vehroute_flow_24_increasing_300_S_uturn.0 tripinfo_flow_24_increasing_300_S_uturn.0" vType="moto" speedFactor="1.14" vaporized=""/>
    <tripinfo id="flow_29_increasing_300_W_straight.0" depart="300.00" departLane="W_in_1" departPos="21.68" departSpeed="5.84" departDelay="0.00" arrival="339.00" arrivalLane="E_out_0" arrivalPos="189.60" arrivalSpeed="13.51" duration="39.00" routeLength="378.32" waitingTime="1.00" waitingCount="1" stopTime="0.00" timeLoss="11.58" rerouteNo="0" devices="vehroute_flow_29_increasing_300_W_straight.0 tripinfo_flow_29_increasing_300_W_straight.0" vType="moto" speedFactor="1.02" vaporized=""/>
    <tripinfo id="flow_32_increasing_300_W_uturn.0" depart="300.00" departLane="W_in_1" departPos="159.96" departSpeed="6.28" departDelay="0.00" arrival="342.00" arrivalLane="W_out_1" arrivalPos="189.60" arrivalSpeed="12.67" duration="42.00" routeLength="223.91" waitingTime="13.00" waitingCount="2" stopTime="0.00" timeLoss="24.06" rerouteNo="0" devices="vehroute_flow_32_increasing_300_W_uturn.0 tripinfo_flow_32_increasing_300_W_uturn.0" vType="moto" speedFactor="0.98" vaporized=""/>
    <tripinfo id="flow_20_increasing_300_N_uturn.0" depart="300.00" departLane="N_in_0" departPos="71.94" departSpeed="3.41" departDelay="0.00" arrival="347.00" arrivalLane="N_out_1" arrivalPos="189.60" arrivalSpeed="11.26" duration="47.00" routeLength="311.93" waitingTime="12.00" waitingCount="1" stopTime="0.00" timeLoss="19.78" rerouteNo="0" devices="vehroute_flow_20_increasing_300_N_uturn.0 tripinfo_flow_20_increasing_300_N_uturn.0" vType="car" speedFactor="0.88" vaporized=""/>
    <tripinfo id="flow_28_increasing_300_E_uturn.0" depart="300.00" departLane="S_in_1" departPos="92.22" departSpeed="0.15" departDelay="0.00" arrival="347.00" arrivalLane="S_out_1" arrivalPos="189.60" arrivalSpeed="12.22" duration="47.00" routeLength="291.65" waitingTime="13.00" waitingCount="1" stopTime="0.00" timeLoss="21.79" rerouteNo="0" devices="vehroute_flow_28_increasing_300_E_uturn.0 tripinfo_flow_28_increasing_300_E_uturn.0" vType="car" speedFactor="0.90" vaporized=""/>
    <tripinfo id="flow_29_increasing_300_W_straight.1" depart="350.00" departLane="W_in_1" departPos="152.01" departSpeed="4.08" departDelay="0.26" arrival="375.00" arrivalLane="E_out_0" arrivalPos="189.60" arrivalSpeed="11.00" duration="25.00" routeLength="247.99" waitingTime="0.00" waitingCount="0" stopTime="0.00" timeLoss="2.45" rerouteNo="0" devices="vehroute_flow_29_increasing_300_W_straight.1 tripinfo_flow_29_increasing_300_W_straight.1" vType="moto" speedFactor="0.80" vaporized=""/>
    <tripinfo id="flow_25_increasing_300_E_straight.1" depart="347.00" departLane="E_in_1" departPos="29.07" departSpeed="2.91" departDelay="0.85" arrival="377.00" arrivalLane="W_out_0" arrivalPos="189.60" arrivalSpeed="13.01" duration="30.00" routeLength="370.93" waitingTime="0.00" waitingCount="0" stopTime="0.00" timeLoss="2.93" rerouteNo="0" devices="vehroute_flow_25_increasing_300_E_straight.1 tripinfo_flow_25_increasing_300_E_straight.1" vType="moto" speedFactor="1.01" vaporized=""/>
    <tripinfo id="flow_17_increasing_300_N_straight.1" depart="351.00" departLane="W_in_0" departPos="24.55" departSpeed="8.56" departDelay="0.74" arrival="381.00" arrivalLane="S_out_0" arrivalPos="189.60" arrivalSpeed="14.46" duration="30.00" routeLength="363.68" waitingTime="0.00" waitingCount="0" stopTime="0.00" timeLoss="3.38" rerouteNo="0" devices="vehroute_flow_17_increasing_300_N_straight.1 tripinfo_flow_17_increasing_300_N_straight.1" vType="moto" speedFactor="1.06" vaporized=""/>