<?xml version="1.0" encoding="UTF-8"?>

<!-- generated on 2025-12-09 21:34:15 by Eclipse SUMO sumo Version 1.18.0
<configuration xmlns:xsi="http://www.w3.org/2001/XMLSchema-instance" xsi:noNamespaceSchemaLocation="http://sumo.dlr.de/xsd/sumoConfiguration.xsd">

    <input>
        <net-file value="/workspace/nets/120p4k/net.net.xml"/>
        <route-files value="/workspace/nets/120p4k/route_temp_334_123834910177792_74393419.rou.xml"/>
    </input>

    <output>
        <summary-output value="results/summary_ep_1.xml"/>
        <tripinfo-output value="results/tripinfo_ep_1.xml"/>
        <vehroute-output value="results/vehroute_ep_1.xml"/>
    </output>

    <time>
        <begin value="0"/>
    </time>

    <report>
        <verbose value="true"/>
        <no-step-log value="true"/>
    </report>

    <traci_server>
        <remote-port value="58145"/>
    </traci_server>

    <gui_only>
        <gui-settings-file value="/workspace/nets/120p4k/gui-settings.xml"/>
        <quit-on-end value="true"/>
    </gui_only>

</configuration>
-->

<tripinfos xmlns:xsi="http://www.w3.org/2001/XMLSchema-instance" xsi:noNamespaceSchemaLocation="http://sumo.dlr.de/xsd/tripinfo_file.xsd">
    <tripinfo id="flow_5_increasing_0_S_straight.0" depart="0.00" departLane="S_in_1" departPos="107.37" departSpeed="7.21" departDelay="0.00" arrival="21.00" arrivalLane="N_out_1" arrivalPos="189.60" arrivalSpeed="15.89" duration="21.00" routeLength="292.63" waitingTime="0.00" waitingCount="0" stopTime="0.00" timeLoss="1.67" rerouteNo="0" devices="vehroute_flow_5_increasing_0_S_straight.0 tripinfo_flow_5_increasing_0_S_straight.0" vType="moto" speedFactor="1.15" vaporized=""/>
    <tripinfo id="flow_6_increasing_0_S_left.0" depart="0.00" departLane="N_in_1" departPos="166.01" departSpeed="0.74" departDelay="0.00" arrival="22.00" arrivalLane="S_out_0" arrivalPos="189.60" arrivalSpeed="11.33" duration="22.00" routeLength="233.99" waitingTime="0.00" waitingCount="0" stopTime="0.00" timeLoss="2.82" rerouteNo="0" devices="vehroute_flow_6_increasing_0_S_left.0 tripinfo_flow_6_increasing_0_S_left.0" vType="moto" speedFactor="0.88" vaporized=""/>
    <tripinfo id="flow_3_increasing_0_N_right.0" depart="0.00" departLane="S_in_0" departPos="103.38" departSpeed="3.81" departDelay="0.00" arrival="26.00" arrivalLane="S_out_1" arrivalPos="189.60" arrivalSpeed="14.42" duration="26.00" routeLength="280.49" waitingTime="0.00" waitingCount="0" stopTime="0.00" timeLoss="6.37" rerouteNo="0" devices="vehroute_flow_3_increasing_0_N_right.0 tripinfo_flow_3_increasing_0_N_right.0" vType="moto" speedFactor="1.11" vaporized=""/>
    <tripinfo id="flow_2_increasing_0_N_left.0" depart="0.00" departLane="N_in_1" departPos="8.27" departSpeed="8.33" departDelay="0.00" arrival="32.00" arrivalLane="E_out_1" arrivalPos="189.60" arrivalSpeed="14.04" duration="32.00" routeLength="390.28" waitingTime="0.00" waitingCount="0" stopTime="0.00" timeLoss="3.23" rerouteNo="0" devices="vehroute_flow_2_increasing_0_N_left.0 tripinfo_flow_2_increasing_0_N_left.0" vType="moto" speedFactor="1.02" vaporized=""/>
    <tripinfo id="flow_15_increasing_0_W_right.0" depart="0.00" departLane="S_in_1" departPos="45.77" departSpeed="6.73" departDelay="0.00" arrival="33.00" arrivalLane="N_out_0" arrivalPos="189.60" arrivalSpeed="11.69" duration="33.00" routeLength="354.23" waitingTime="0.00" waitingCount="0" stopTime="0.00" timeLoss="2.05" rerouteNo="0" devices="vehroute_flow_15_increasing_0_W_right.0 tripinfo_flow_15_increasing_0_W_right.0" vType="moto" speedFactor="0.85" vaporized=""/>
    <tripinfo id="flow_16_increasing_0_W_uturn.0" depart="0.00" departLane="W_in_1" departPos="135.67" departSpeed="1.28" departDelay="0.00" arrival="35.00" arrivalLane="W_out_1" arrivalPos="189.60" arrivalSpeed="14.00" duration="35.00" routeLength="248.20" waitingTime="9.00" waitingCount="1" stopTime="0.00" timeLoss="17.07" rerouteNo="0" devices="vehroute_flow_16_increasing_0_W_uturn.0 tripinfo_flow_16_increasing_0_W_uturn.0" vType="moto" speedFactor="1.04" vaporized=""/>
    <tripinfo id="flow_9_increasing_0_E_straight.0" depart="0.00" departLane="E_in_0" departPos="168.29" departSpeed="10.73" departDelay="0.00" arrival="37.00" arrivalLane="W_out_0" arrivalPos="189.60" arrivalSpeed="11.84" duration="37.00" routeLength="231.71" waitingTime="13.00" waitingCount="1" stopTime="0.00" timeLoss="18.85" rerouteNo="0" devices="vehroute_flow_9_increasing_0_E_straight.0 tripinfo_flow_9_increasing_0_E_straight.0" vType="car" speedFactor="0.94" vaporized=""/>
    <tripinfo id="flow_12_increasing_0_E_uturn.0" depart="0.00" departLane="W_in_0" departPos="5.65" departSpeed="13.76" departDelay="0.00" arrival="37.00" arrivalLane="E_out_1" arrivalPos="189.60" arrivalSpeed="13.21" duration="37.00" routeLength="394.35" waitingTime="1.00" waitingCount="1" stopTime="0.00" timeLoss="9.45" rerouteNo="0" devices="vehroute_flow_12_increasing_0_E_uturn.0 tripinfo_flow_12_increasing_0_E_uturn.0" vType="moto" speedFactor="1.03" vaporized=""/>
    <tripinfo id="flow_4_increasing_0_N_uturn.0" depart="0.00" departLane="W_in_1" departPos="127.60" departSpeed="0.08" departDelay="0.00" arrival="38.00" arrivalLane="E_out_0" arrivalPos="189.60" arrivalSpeed="11.33" duration="38.00" routeLength="272.40" waitingTime="7.00" waitingCount="1" stopTime="0.00" timeLoss="15.82" rerouteNo="0" devices="vehroute_flow_4_increasing_0_N_uturn.0 tripinfo_flow_4_increasing_0_N_uturn.0" vType="moto" speedFactor="0.91" vaporized=""/>
    <tripinfo id="flow_11_increasing_0_E_right.0" depart="0.00" departLane="E_in_1" departPos="144.95" departSpeed="4.02" departDelay="0.00" arrival="42.00" arrivalLane="N_out_0" arrivalPos="189.60" arrivalSpeed="12.79" duration="42.00" routeLength="243.28" waitingTime="11.00" waitingCount="1" stopTime="0.00" timeLoss="22.86" rerouteNo="0" devices="vehroute_flow_11_increasing_0_E_right.0 tripinfo_flow_11_increasing_0_E_right.0" vType="bus" speedFactor="0.96" vaporized=""/>
    <tripinfo id="flow_14_increasing_0_W_left.0" depart="0.00" departLane="W_in_1" departPos="42.31" departSpeed="3.71" departDelay="0.00" arrival="42.00" arrivalLane="S_out_0" arrivalPos="189.60" arrivalSpeed="14.00" duration="42.00" routeLength="345.92" waitingTime="2.00" waitingCount="1" stopTime="0.00" timeLoss="16.72" rerouteNo="0" devices="vehroute_flow_14_increasing_0_W_left.0 tripinfo_flow_14_increasing_0_W_left.0" vType="moto" speedFactor="1.01" vaporized=""/>
    <tripinfo id="flow_13_increasing_0_W_straight.0" depart="0.00" departLane="W_in_0" departPos="77.99" departSpeed="3.97" departDelay="0.00" arrival="43.00" arrivalLane="E_out_0" arrivalPos="189.60" arrivalSpeed="11.45" duration="43.00" routeLength="322.01" waitingTime="4.00" waitingCount="1" stopTime="0.00" timeLoss="16.07" rerouteNo="0" devices="vehroute_flow_13_increasing_0_W_straight.0 tripinfo_flow_13_increasing_0_W_straight.0" vType="bus" speedFactor="0.86" vaporized=""/>
    <tripinfo id="flow_8_increasing_0_S_uturn.0" depart="0.00" departLane="E_in_0" departPos="120.11" departSpeed="4.48" departDelay="0.00" arrival="44.00" arrivalLane="N_out_0" arrivalPos="189.60" arrivalSpeed="13.70" duration="44.00" routeLength="268.12" waitingTime="9.00" waitingCount="1" stopTime="0.00" timeLoss="25.03" rerouteNo="0" devices="vehroute_flow_8_increasing_0_S_uturn.0 tripinfo_flow_8_increasing_0_S_uturn.0" vType="moto" speedFactor="1.05" vaporized=""/>
    <tripinfo id="flow_10_increasing_0_E_left.0" depart="0.00" departLane="E_in_0" departPos="44.88" departSpeed="8.19" departDelay="0.00" arrival="45.00" arrivalLane="S_out_1" arrivalPos="189.60" arrivalSpeed="13.80" duration="45.00" routeLength="353.67" waitingTime="9.00" waitingCount="2" stopTime="0.00" timeLoss="20.29" rerouteNo="0" devices="vehroute_flow_10_increasing_0_E_left.0 tripinfo_flow_10_increasing_0_E_left.0" vType="car" speedFactor="1.08" vaporized=""/>
    <tripinfo id="flow_7_increasing_0_S_right.0" depart="0.00" departLane="S_in_0" departPos="8.76" departSpeed="8.47" departDelay="0.00" arrival="54.00" arrivalLane="E_out_0" arrivalPos="189.60" arrivalSpeed="12.36" duration="54.00" routeLength="379.47" waitingTime="12.00" waitingCount="1" stopTime="0.00" timeLoss="22.03" rerouteNo="0" devices="vehroute_flow_7_increasing_0_S_right.0 tripinfo_flow_7_increasing_0_S_right.0" vType="bus" speedFactor="0.89" vaporized=""/>
    <tripinfo id="flow_1_increasing_0_N_straight.0" depart="0.00" departLane="N_in_0" departPos="8.62" departSpeed="8.51" departDelay="0.00" arrival="55.00" arrivalLane="S_out_0" arrivalPos="189.60" arrivalSpeed="11.80" duration="55.00" routeLength="391.38" waitingTime="12.00" waitingCount="1" stopTime="0.00" timeLoss="21.46" rerouteNo="0" devices="vehroute_flow_1_increasing_0_N_straight.0 tripinfo_flow_1_increasing_0_N_straight.0" vType="truck" speedFactor="0.86" vaporized=""/>
    <tripinfo id="flow_5_increasing_0_S_straight.1" depart="67.00" departLane="S_in_0" departPos="93.39" departSpeed="3.73" departDelay="0.67" arrival="95.00" arrivalLane="N_out_0" arrivalPos="189.60" arrivalSpeed="11.71" duration="28.00" routeLength="306.61" waitingTime="0.00" waitingCount="0" stopTime="0.00" timeLoss="2.35" rerouteNo="0" devices="vehroute_flow_5_increasing_0_S_straight.1 tripinfo_flow_5_increasing_0_S_straight.1" vType="moto" speedFactor="0.87" vaporized=""/>
    <tripinfo id="flow_1_increasing_0_N_straight.1" depart="70.00" departLane="N_in_1" departPos="28.79" departSpeed="10.22" departDelay="0.19" arrival="95.00" arrivalLane="S_out_1" arrivalPos="189.60" arrivalSpeed="15.11" duration="25.00" routeLength="371.21" waitingTime="0.00" waitingCount="0" stopTime="0.00" timeLoss="1.21" rerouteNo="0" devices="vehroute_flow_1_increasing_0_N_straight.1 tripinfo_flow_1_increasing_0_N_straight.1" vType="moto" speedFactor="1.15" vaporized=""/>
    <tripinfo id="flow_13_increasing_0_W_straight.1" depart="68.00" departLane="W_in_1" departPos="181.05" departSpeed="2.69" departDelay="0.66" arrival="126.00" arrivalLane="E_out_0" arrivalPos="189.60" arrivalSpeed="15.71" duration="58.00" routeLength="218.95" waitingTime="38.00" waitingCount="1" stopTime="0.00" timeLoss="44.00" rerouteNo="0" devices="vehroute_flow_13_increasing_0_W_straight.1 tripinfo_flow_13_increasing_0_W_straight.1" vType="moto" speedFactor="1.19" vaporized=""/>
    <tripinfo id="flow_9_increasing_0_E_straight.1" depart="65.00" departLane="E_in_1" departPos="177.29" departSpeed="8.41" departDelay="0.90" arrival="127.00" arrivalLane="W_out_0" arrivalPos="189.60" arrivalSpeed="15.68" duration="62.00" routeLength="222.71" waitingTime="42.00" waitingCount="1" stopTime="0.00" timeLoss="47.63" rerouteNo="0" devices="vehroute_flow_9_increasing_0_E_straight.1 tripinfo_flow_9_increasing_0_E_straight.1" vType="moto" speedFactor="1.16" vaporized=""/>
    <tripinfo id="flow_9_increasing_0_E_straight.2" depart="129.00" departLane="E_in_1" departPos="103.67" departSpeed="3.85" departDelay="0.79" arrival="153.00" arrivalLane="W_out_1" arrivalPos="189.60" arrivalSpeed="13.72" duration="24.00" routeLength="296.33" waitingTime="0.00" waitingCount="0" stopTime="0.00" timeLoss="2.10" rerouteNo="0" devices="vehroute_flow_9_increasing_0_E_straight.2 tripinfo_flow_9_increasing_0_E_straight.2" vType="moto" speedFactor="0.99" vaporized=""/>
    <tripinfo id="flow_13_increasing_0_W_straight.2" depart="135.00" departLane="W_in_1" departPos="64.28" departSpeed="4.21" departDelay="0.32" arrival="164.00" arrivalLane="E_out_0" arrivalPos="189.60" arrivalSpeed="13.33" duration="29.00" routeLength="335.72" waitingTime="0.00" waitingCount="0" stopTime="0.00" timeLoss="3.84" rerouteNo="0" devices="vehroute_flow_13_increasing_0_W_straight.2 tripinfo_flow_13_increasing_0_W_straight.2" vType="truck" speedFactor="0.97" vaporized=""/>
    <tripinfo id="flow_5_increasing_0_S_straight.2" depart="133.00" departLane="S_in_0" departPos="33.93" departSpeed="0.90" departDelay="0.33" arrival="178.00" arrivalLane="N_out_0" arrivalPos="189.60" arrivalSpeed="12.37" duration="45.00" routeLength="366.07" waitingTime="8.00" waitingCount="1" stopTime="0.00" timeLoss="17.01" rerouteNo="0" devices="vehroute_flow_5_increasing_0_S_straight.2 tripinfo_flow_5_increasing_0_S_straight.2" vType="moto" speedFactor="0.96" vaporized=""/>
    <tripinfo id="flow_1_increasing_0_N_straight.2" depart="140.00" departLane="N_in_1" departPos="39.28" departSpeed="7.32" departDelay="0.38" arrival="178.00" arrivalLane="S_out_0" arrivalPos="189.60" arrivalSpeed="12.56" duration="38.00" routeLength="360.72" waitingTime="3.00" waitingCount="1" stopTime="0.00" timeLoss="9.93" rerouteNo="0" devices="vehroute_flow_1_increasing_0_N_straight.2 tripinfo_flow_1_increasing_0_N_straight.2" vType="moto" speedFactor="0.93" vaporized=""/>
    <tripinfo id="flow_15_increasing_0_W_right.1" depart="164.00" departLane="S_in_0" departPos="80.24" departSpeed="9.78" departDelay="0.60" arrival="188.00" arrivalLane="N_out_0" arrivalPos="189.60" arrivalSpeed="14.17" duration="24.00" routeLength="319.76" waitingTime="0.00" waitingCount="0" stopTime="0.00" timeLoss="1.40" rerouteNo="0" devices="vehroute_flow_15_increasing_0_W_right.1 tripinfo_flow_15_increasing_0_W_right.1" vType="moto" speedFactor="1.04" vaporized=""/>
    <tripinfo id="flow_6_increasing_0_S_left.1" depart="166.00" departLane="N_in_1" departPos="97.23" departSpeed="5.84" departDelay="0.16" arrival="189.00" arrivalLane="S_out_1" arrivalPos="189.60" arrivalSpeed="13.90" duration="23.00" routeLength="302.77" waitingTime="0.00" waitingCount="0" stopTime="0.00" timeLoss="2.00" rerouteNo="0" devices="vehroute_flow_6_increasing_0_S_left.1 tripinfo_flow_6_increasing_0_S_left.1" vType="moto" speedFactor="1.08" vaporized=""/>
    <tripinfo id="flow_2_increasing_0_N_left.1" depart="163.00" departLane="N_in_0" departPos="15.17" departSpeed="0.73" departDelay="0.40" arrival="194.00" arrivalLane="E_out_1" arrivalPos="189.60" arrivalSpeed="15.47" duration="31.00" routeLength="383.38" waitingTime="0.00" waitingCount="0" stopTime="0.00" timeLoss="5.18" rerouteNo="0" devices="vehroute_flow_2_increasing_0_N_left.1 tripinfo_flow_2_increasing_0_N_left.1" vType="moto" speedFactor="1.12" vaporized=""/>
    <tripinfo id="flow_14_increasing_0_W_left.1" depart="166.00" departLane="W_in_1" departPos="79.10" departSpeed="8.50" departDelay="0.16" arrival="199.00" arrivalLane="S_out_0" arrivalPos="189.60" arrivalSpeed="13.80" duration="33.00" routeLength="309.13" waitingTime="4.00" waitingCount="1" stopTime="0.00" timeLoss="10.54" rerouteNo="0" devices="vehroute_flow_14_increasing_0_W_left.1 tripinfo_flow_14_increasing_0_W_left.1" vType="moto" speedFactor="1.05" vaporized=""/>
    <tripinfo id="flow_11_increasing_0_E_right.1" depart="170.00" departLane="E_in_0" departPos="166.00" departSpeed="1.28" departDelay="0.80" arrival="201.00" arrivalLane="N_out_0" arrivalPos="189.60" arrivalSpeed="11.53" duration="31.00" routeLength="222.23" waitingTime="5.00" waitingCount="1" stopTime="0.00" timeLoss="11.69" rerouteNo="0" devices="vehroute_flow_11_increasing_0_E_right.1 tripinfo_flow_11_increasing_0_E_right.1" vType="moto" speedFactor="0.88" vaporized=""/>
    <tripinfo id="flow_7_increasing_0_S_right.1" depart="163.00" departLane="S_in_0" departPos="54.99" departSpeed="3.84" departDelay="0.40" arrival="202.00" arrivalLane="E_out_0" arrivalPos="189.60" arrivalSpeed="10.40" duration="39.00" routeLength="333.24" waitingTime="0.00" waitingCount="0" stopTime="0.00" timeLoss="7.47" rerouteNo="0" devices="vehroute_flow_7_increasing_0_S_right.1 tripinfo_flow_7_increasing_0_S_right.1" vType="container" speedFactor="0.78" vaporized=""/>
    <tripinfo id="flow_10_increasing_0_E_left.1" depart="170.00" departLane="E_in_0" departPos="4.52" departSpeed="10.46" departDelay="0.80" arrival="211.00" arrivalLane="S_out_0" arrivalPos="189.60" arrivalSpeed="10.01" duration="41.00" routeLength="394.03" waitingTime="0.00" waitingCount="0" stopTime="0.00" timeLoss="3.08" rerouteNo="0" devices="vehroute_flow_10_increasing_0_E_left.1 tripinfo_flow_10_increasing_0_E_left.1" vType="car" speedFactor="0.77" vaporized=""/>
    <tripinfo id="flow_5_increasing_0_S_straight.3" depart="200.00" departLane="S_in_0" departPos="184.19" departSpeed="8.58" departDelay="1.00" arrival="216.00" arrivalLane="N_out_0" arrivalPos="189.60" arrivalSpeed="13.99" duration="16.00" routeLength="215.81" waitingTime="0.00" waitingCount="0" stopTime="0.00" timeLoss="1.04" rerouteNo="0" devices="vehroute_flow_5_increasing_0_S_straight.3 tripinfo_flow_5_increasing_0_S_straight.3" vType="moto" speedFactor="1.08" vaporized=""/>
    <tripinfo id="flow_3_increasing_0_N_right.1" depart="174.00" departLane="S_in_0" departPos="93.41" departSpeed="11.76" departDelay="0.39" arrival="219.00" arrivalLane="S_out_0" arrivalPos="189.60" arrivalSpeed="12.68" duration="45.00" routeLength="290.46" waitingTime="10.00" waitingCount="1" stopTime="0.00" timeLoss="21.06" rerouteNo="0" devices="vehroute_flow_3_increasing_0_N_right.1 tripinfo_flow_3_increasing_0_N_right.1" vType="container" speedFactor="0.91" vaporized=""/>
    <tripinfo id="flow_13_increasing_0_W_straight.3" depart="203.00" departLane="W_in_0" departPos="65.01" departSpeed="6.58" departDelay="0.98" arrival="227.00" arrivalLane="E_out_0" arrivalPos="189.60" arrivalSpeed="15.34" duration="24.00" routeLength="334.99" waitingTime="0.00" waitingCount="0" stopTime="0.00" timeLoss="2.32" rerouteNo="0" devices="vehroute_flow_13_increasing_0_W_straight.3 tripinfo_flow_13_increasing_0_W_straight.3" vType="moto" speedFactor="1.20" vaporized=""/>
    <tripinfo id="flow_9_increasing_0_E_straight.3" depart="193.00" departLane="E_in_0" departPos="86.42" departSpeed="8.41" departDelay="0.69" arrival="231.00" arrivalLane="W_out_0" arrivalPos="189.60" arrivalSpeed="11.50" duration="38.00" routeLength="313.58" waitingTime="2.00" waitingCount="1" stopTime="0.00" timeLoss="11.46" rerouteNo="0" devices="vehroute_flow_9_increasing_0_E_straight.3 tripinfo_flow_9_increasing_0_E_straight.3" vType="truck" speedFactor="0.85" vaporized=""/>
    <tripinfo id="flow_1_increasing_0_N_straight.3" depart="210.00" departLane="N_in_1" departPos="88.42" departSpeed="1.49" departDelay="0.58" arrival="236.00" arrivalLane="S_out_0" arrivalPos="189.60" arrivalSpeed="14.32" duration="26.00" routeLength="311.58" waitingTime="0.00" waitingCount="0" stopTime="0.00" timeLoss="4.61" rerouteNo="0" devices="vehroute_flow_1_increasing_0_N_straight.3 tripinfo_flow_1_increasing_0_N_straight.3" vType="moto" speedFactor="1.06" vaporized=""/>
    <tripinfo id="flow_9_increasing_0_E_straight.4" depart="257.00" departLane="E_in_1" departPos="53.32" departSpeed="10.34" departDelay="0.59" arrival="285.00" arrivalLane="W_out_0" arrivalPos="189.60" arrivalSpeed="12.93" duration="28.00" routeLength="346.68" waitingTime="0.00" waitingCount="0" stopTime="0.00" timeLoss="1.07" rerouteNo="0" devices="vehroute_flow_9_increasing_0_E_straight.4 tripinfo_flow_9_increasing_0_E_straight.4" vType="bus" speedFactor="0.95" vaporized=""/>
    <tripinfo id="flow_5_increasing_0_S_straight.4" depart="266.00" departLane="S_in_0" departPos="135.24" departSpeed="1.68" departDelay="0.66" arrival="296.00" arrivalLane="N_out_0" arrivalPos="189.60" arrivalSpeed="13.19" duration="30.00" routeLength="264.76" waitingTime="0.00" waitingCount="0" stopTime="0.00" timeLoss="9.57" rerouteNo="0" devices="vehroute_flow_5_increasing_0_S_straight.4 tripinfo_flow_5_increasing_0_S_straight.4" vType="container" speedFactor="0.97" vaporized=""/>
    <tripinfo id="flow_1_increasing_0_N_straight.4" depart="280.00" departLane="N_in_1" departPos="74.07" departSpeed="0.57" departDelay="0.77" arrival="309.00" arrivalLane="S_out_0" arrivalPos="189.60" arrivalSpeed="12.88" duration="29.00" routeLength="325.93" waitingTime="0.00" waitingCount="0" stopTime="0.00" timeLoss="4.26" rerouteNo="0" devices="vehroute_flow_1_increasing_0_N_straight.4 tripinfo_flow_1_increasing_0_N_straight.4" vType="car" speedFactor="0.96" vaporized=""/>
    <tripinfo id="flow_30_increasing_300_W_left.0" depart="300.00" departLane="W_in_1" departPos="188.98" departSpeed="0.62" departDelay="0.00" arrival="318.00" arrivalLane="N_out_1" arrivalPos="189.60" arrivalSpeed="15.07" duration="18.00" routeLength="209.57" waitingTime="0.00" waitingCount="0" stopTime="0.00" timeLoss="3.32" rerouteNo="0" devices="vehroute_flow_30_increasing_300_W_left.0 tripinfo_flow_30_increasing_300_W_left.0" vType="moto" speedFactor="1.10" vaporized=""/>
    <tripinfo id="flow_13_increasing_0_W_straight.4" depart="270.00" departLane="W_in_0" departPos="70.46" departSpeed="10.65" departDelay="0.64" arrival="320.00" arrivalLane="E_out_0" arrivalPos="189.60" arrivalSpeed="11.87" duration="50.00" routeLength="329.54" waitingTime="13.00" waitingCount="1" stopTime="0.00" timeLoss="22.13" rerouteNo="0" devices="vehroute_flow_13_increasing_0_W_straight.4 tripinfo_flow_13_increasing_0_W_straight.4" vType="truck" speedFactor="0.87" vaporized=""/>
    <tripinfo id="flow_29_increasing_300_W_straight.0" depart="300.00" departLane="W_in_0" departPos="161.41" departSpeed="1.62" departDelay="0.00" arrival="322.00" arrivalLane="N_out_1" arrivalPos="189.60" arrivalSpeed="13.58" duration="22.00" routeLength="237.14" waitingTime="0.00" waitingCount="0" stopTime="0.00" timeLoss="3.92" rerouteNo="0" devices="vehroute_flow_29_increasing_300_W_straight.0 tripinfo_flow_29_increasing_300_W_straight.0" vType="moto" speedFactor="1.02" vaporized=""/>
    <tripinfo id="flow_28_increasing_300_E_uturn.0" depart="300.00" departLane="E_in_1" departPos="172.37" departSpeed="6.07" departDelay="0.00" arrival="323.00" arrivalLane="E_out_1" arrivalPos="189.60" arrivalSpeed="12.21" duration="23.00" routeLength="211.50" waitingTime="0.00" waitingCount="0" stopTime="0.00" timeLoss="4.23" rerouteNo="0" devices="vehroute_flow_28_increasing_300_E_uturn.0 tripinfo_flow_28_increasing_300_E_uturn.0" vType="car" speedFactor="0.90" vaporized=""/>
    <tripinfo id="flow_27_increasing_300_E_right.0" depart="300.00" departLane="S_in_1" departPos="174.17" departSpeed="9.64" departDelay="0.00" arrival="326.00" arrivalLane="E_out_0" arrivalPos="189.60" arrivalSpeed="14.84" duration="26.00" routeLength="214.06" waitingTime="4.00" waitingCount="1" stopTime="0.00" timeLoss="11.02" rerouteNo="0" devices="vehroute_flow_27_increasing_300_E_right.0 tripinfo_flow_27_increasing_300_E_right.0" vType="moto" speedFactor="1.10" vaporized=""/>
    <tripinfo id="flow_24_increasing_300_S_uturn.0" depart="300.00" departLane="S_in_0" departPos="91.52" departSpeed="14.07" departDelay="0.00" arrival="327.00" arrivalLane="S_out_1" arrivalPos="189.60" arrivalSpeed="15.65" duration="27.00" routeLength="292.35" waitingTime="0.00" waitingCount="0" stopTime="0.00" timeLoss="7.46" rerouteNo="0" devices="vehroute_flow_24_increasing_300_S_uturn.0 tripinfo_flow_24_increasing_300_S_uturn.0" vType="moto" speedFactor="1.14" vaporized=""/>
    <tripinfo id="flow_17_increasing_300_N_straight.0" depart="300.00" departLane="N_in_1" departPos="160.30" departSpeed="12.75" departDelay="0.00" arrival="328.00" arrivalLane="W_out_0" arrivalPos="189.60" arrivalSpeed="11.75" duration="28.00" routeLength="227.93" waitingTime="4.00" waitingCount="1" stopTime="0.00" timeLoss="9.09" rerouteNo="0" devices="vehroute_flow_17_increasing_300_N_straight.0 tripinfo_flow_17_increasing_300_N_straight.0" vType="car" speedFactor="0.94" vaporized=""/>
    <tripinfo id="flow_20_increasing_300_N_uturn.0" depart="300.00" departLane="N_in_1" departPos="129.09" departSpeed="4.66" departDelay="0.00" arrival="329.00" arrivalLane="N_out_1" arrivalPos="189.60" arrivalSpeed="11.96" duration="29.00" routeLength="254.78" waitingTime="0.00" waitingCount="0" stopTime="0.00" timeLoss="6.13" rerouteNo="0" devices="vehroute_flow_20_increasing_300_N_uturn.0 tripinfo_flow_20_increasing_300_N_uturn.0" vType="car" speedFactor="0.88" vaporized=""/>
    <tripinfo id="flow_22_increasing_300_S_left.0" depart="300.00" departLane="S_in_0" departPos="155.68" departSpeed="8.14" departDelay="0.00" arrival="329.00" arrivalLane="W_out_1" arrivalPos="189.60" arrivalSpeed="11.75" duration="29.00" routeLength="242.87" waitingTime="2.00" waitingCount="1" stopTime="0.00" timeLoss="8.62" rerouteNo="0" devices="vehroute_flow_22_increasing_300_S_left.0 tripinfo_flow_22_increasing_300_S_left.0" vType="moto" speedFactor="0.91" vaporized=""/>
    <tripinfo id="flow_18_increasing_300_N_left.0" depart="300.00" departLane="N_in_1" departPos="65.33" departSpeed="11.70" departDelay="0.00" arrival="330.00" arrivalLane="E_out_1" arrivalPos="189.60" arrivalSpeed="11.77" duration="30.00" routeLength="333.22" waitingTime="0.00" waitingCount="0" stopTime="0.00" timeLoss="3.32" rerouteNo="0" devices="vehroute_flow_18_increasing_300_N_left.0 tripinfo_flow_18_increasing_300_N_left.0" vType="moto" speedFactor="0.93" vaporized=""/>
    <tripinfo id="flow_19_increasing_300_N_right.0" depart="300.00" departLane="N_in_1" departPos="111.69" departSpeed="5.48" departDelay="0.00" arrival="331.00" arrivalLane="W_out_0" arrivalPos="189.60" arrivalSpeed="11.43" duration="31.00" routeLength="276.54" waitingTime="0.00" waitingCount="0" stopTime="0.00" timeLoss="7.79" rerouteNo="0" devices="vehroute_flow_19_increasing_300_N_right.0 tripinfo_flow_19_increasing_300_N_right.0" vType="car" speedFactor="0.91" vaporized=""/>
    <tripinfo id="flow_25_increasing_300_E_straight.0" depart="300.00" departLane="W_in_1" departPos="65.57" departSpeed="2.42" departDelay="0.00" arrival="339.00" arrivalLane="S_out_0" arrivalPos="189.60" arrivalSpeed="13.59" duration="39.00" routeLength="322.66" waitingTime="7.00" waitingCount="1" stopTime="0.00" timeLoss="15.44" rerouteNo="0" devices="vehroute_flow_25_increasing_300_E_straight.0 tripinfo_flow_25_increasing_300_E_straight.0" vType="moto" speedFactor="1.04" vaporized=""/>
    <tripinfo id="flow_31_increasing_300_W_right.0" depart="300.00" departLane="E_in_1" departPos="148.65" departSpeed="11.10" departDelay="0.00" arrival="341.00" arrivalLane="E_out_1" arrivalPos="189.60" arrivalSpeed="12.23" duration="41.00" routeLength="235.22" waitingTime="14.00" waitingCount="1" stopTime="0.00" timeLoss="22.05" rerouteNo="0" devices="vehroute_flow_31_increasing_300_W_right.0 tripinfo_flow_31_increasing_300_W_right.0" vType="moto" speedFactor="0.97" vaporized=""/>
    <tripinfo id="flow_32_increasing_300_W_uturn.0" depart="300.00" departLane="W_in_0" departPos="63.10" departSpeed="11.44" departDelay="0.00" arrival="341.00" arrivalLane="W_out_1" arrivalPos="189.60" arrivalSpeed="13.47" duration="41.00" routeLength="320.77" waitingTime="8.00" waitingCount="1" stopTime="0.00" timeLoss="15.33" rerouteNo="0" devices="vehroute_flow_32_increasing_300_W_uturn.0 tripinfo_flow_32_increasing_300_W_uturn.0" vType="moto" speedFactor="0.98" vaporized=""/>
    <tripinfo id="flow_23_increasing_300_S_right.0" depart="300.00" departLane="W_in_1" departPos="2.77" departSpeed="8.14" departDelay="0.00" arrival="342.00" arrivalLane="E_out_1" arrivalPos="189.60" arrivalSpeed="14.53" duration="42.00" routeLength="397.23" waitingTime="6.00" waitingCount="1" stopTime="0.00" timeLoss="14.96" rerouteNo="0" devices="vehroute_flow_23_increasing_300_S_right.0 tripinfo_flow_23_increasing_300_S_right.0" vType="moto" speedFactor="1.07" vaporized=""/>
    <tripinfo id="flow_26_increasing_300_E_left.0" depart="300.00" departLane="E_in_0" departPos="64.25" departSpeed="5.90" departDelay="0.00" arrival="346.00" arrivalLane="S_out_1" arrivalPos="189.60" arrivalSpeed="11.29" duration="46.00" routeLength="334.30" waitingTime="10.00" waitingCount="1" stopTime="0.00" timeLoss="18.26" rerouteNo="0" devices="vehroute_flow_26_increasing_300_E_left.0 tripinfo_flow_26_increasing_300_E_left.0" vType="moto" speedFactor="0.90" vaporized=""/>
    <tripinfo id="flow_21_increasing_300_S_straight.0" depart="300.00" departLane="E_in_1" departPos="19.51" departSpeed="8.19" departDelay="0.00" arrival="347.00" arrivalLane="S_out_1" arrivalPos="189.60" arrivalSpeed="13.24" duration="47.00" routeLength="379.04" waitingTime="7.00" waitingCount="1" stopTime="0.00" timeLoss="19.81" rerouteNo="0" devices="vehroute_flow_21_increasing_300_S_straight.0 tripinfo_flow_21_increasing_300_S_straight.0" vType="moto" speedFactor="1.03" vaporized=""/>
    <tripinfo id="flow_25_increasing_300_E_straight.1" depart="347.00" departLane="W_in_1" departPos="84.66" departSpeed="2.15" departDelay="0.85" arrival="374.00" arrivalLane="S_out_0" arrivalPos="189.60" arrivalSpeed="13.25" duration="27.00" routeLength="303.57" waitingTime="0.00" waitingCount="0" stopTime="0.00" timeLoss="4.61" rerouteNo="0" devices="vehroute_flow_25_increasing_300_E_straight.1 tripinfo_flow_25_increasing_300_E_straight.1" vType="moto" speedFactor="1.01" vaporized=""/>
    <tripinfo id="flow_17_increasing_300_N_straight.1" depart="351.00" departLane="N_in_0" departPos="149.69" departSpeed="1.91" departDelay="0.74" arrival="377.00" arrivalLane="W_out_0" arrivalPos="189.60" arrivalSpeed="14.32" duration="26.00" routeLength="238.54" waitingTime="0.00" waitingCount="0" stopTime="0.00" timeLoss="9.22" rerouteNo="0" devices="vehroute_flow_17_increasing_300_N_straight.1 tripinfo_flow_17_increasing_300_N_straight.1" vType="moto" speedFactor="1.06" vaporized=""/>
    <tripinfo id="flow_21_increasing_300_S_straight.1" depart="350.00" departLane="E_in_1" departPos="84.30" departSpeed="9.09" departDelay="0.52" arrival="396.00" arrivalLane="S_out_1" arrivalPos="189.60" arrivalSpeed="11.92" duration="46.00" routeLength="314.25" waitingTime="12.00" waitingCount="1" stopTime="0.00" timeLoss="20.17" rerouteNo="0" devices="vehroute_flow_21_increasing_300_S_straight.1 tripinfo_flow_21_increasing_300_S_straight.1" vType="truck" speedFactor="0.90" vaporized=""/>