<?xml version="1.0" encoding="UTF-8"?>

<!-- generated on 2025-12-09 21:39:54 by Eclipse SUMO sumo Version 1.18.0
<configuration xmlns:xsi="http://www.w3.org/2001/XMLSchema-instance" xsi:noNamespaceSchemaLocation="http://sumo.dlr.de/xsd/sumoConfiguration.xsd">

    <input>
        <net-file value="/workspace/nets/120p4k/net.net.xml"/>
        <route-files value="/workspace/nets/120p4k/route_temp_334_123834910177792_74393419.rou.xml"/>
    </input>

    <output>
        <summary-output value="results/summary_ep_8.xml"/>
        <tripinfo-output value="results/tripinfo_ep_8.xml"/>
        <vehroute-output value="results/vehroute_ep_8.xml"/>
    </output>

    <time>
        <begin value="0"/>
    </time>

    <report>
        <verbose value="true"/>
        <no-step-log value="true"/>
    </report>

    <traci_server>
        <remote-port value="58807"/>
    </traci_server>

    <gui_only>
        <gui-settings-file value="/workspace/nets/120p4k/gui-settings.xml"/>
        <quit-on-end value="true"/>
    </gui_only>

</configuration>
-->

<tripinfos xmlns:xsi="http://www.w3.org/2001/XMLSchema-instance" xsi:noNamespaceSchemaLocation="http://sumo.dlr.de/xsd/tripinfo_file.xsd">
    <tripinfo id="flow_8_increasing_0_S_uturn.0" depart="0.00" departLane="S_in_0" departPos="178.04" departSpeed="8.03" departDelay="0.00" arrival="19.00" arrivalLane="S_out_1" arrivalPos="189.60" arrivalSpeed="13.46" duration="19.00" routeLength="205.83" waitingTime="0.00" waitingCount="0" stopTime="0.00" timeLoss="4.09" rerouteNo="0" devices="vehroute_flow_8_increasing_0_S_uturn.0 tripinfo_flow_8_increasing_0_S_uturn.0" vType="moto" speedFactor="1.05" vaporized=""/>
    <tripinfo id="flow_3_increasing_0_N_right.0" depart="0.00" departLane="N_in_0" departPos="103.38" departSpeed="3.81" departDelay="0.00" arrival="24.00" arrivalLane="W_out_0" arrivalPos="189.60" arrivalSpeed="15.38" duration="24.00" routeLength="284.85" waitingTime="0.00" waitingCount="0" stopTime="0.00" timeLoss="4.42" rerouteNo="0" devices="vehroute_flow_3_increasing_0_N_right.0 tripinfo_flow_3_increasing_0_N_right.0" vType="moto" speedFactor="1.11" vaporized=""/>
    <tripinfo id="flow_4_increasing_0_N_uturn.0" depart="0.00" departLane="N_in_1" departPos="127.60" departSpeed="0.08" departDelay="0.00" arrival="27.00" arrivalLane="N_out_1" arrivalPos="189.60" arrivalSpeed="11.70" duration="27.00" routeLength="256.27" waitingTime="0.00" waitingCount="0" stopTime="0.00" timeLoss="5.99" rerouteNo="0" devices="vehroute_flow_4_increasing_0_N_uturn.0 tripinfo_flow_4_increasing_0_N_uturn.0" vType="moto" speedFactor="0.91" vaporized=""/>
    <tripinfo id="flow_7_increasing_0_S_right.0" depart="0.00" departLane="S_in_0" departPos="97.26" departSpeed="8.47" departDelay="0.00" arrival="29.00" arrivalLane="E_out_0" arrivalPos="189.60" arrivalSpeed="11.79" duration="29.00" routeLength="290.97" waitingTime="0.00" waitingCount="0" stopTime="0.00" timeLoss="4.91" rerouteNo="0" devices="vehroute_flow_7_increasing_0_S_right.0 tripinfo_flow_7_increasing_0_S_right.0" vType="bus" speedFactor="0.89" vaporized=""/>
    <tripinfo id="flow_14_increasing_0_W_left.0" depart="0.00" departLane="N_in_1" departPos="42.31" departSpeed="3.71" departDelay="0.00" arrival="29.00" arrivalLane="S_out_1" arrivalPos="189.60" arrivalSpeed="13.96" duration="29.00" routeLength="357.69" waitingTime="0.00" waitingCount="0" stopTime="0.00" timeLoss="2.57" rerouteNo="0" devices="vehroute_flow_14_increasing_0_W_left.0 tripinfo_flow_14_increasing_0_W_left.0" vType="moto" speedFactor="1.01" vaporized=""/>
    <tripinfo id="flow_2_increasing_0_N_left.0" depart="0.00" departLane="N_in_1" departPos="8.27" departSpeed="8.33" departDelay="0.00" arrival="31.00" arrivalLane="W_out_0" arrivalPos="189.60" arrivalSpeed="13.80" duration="31.00" routeLength="379.96" waitingTime="0.00" waitingCount="0" stopTime="0.00" timeLoss="3.45" rerouteNo="0" devices="vehroute_flow_2_increasing_0_N_left.0 tripinfo_flow_2_increasing_0_N_left.0" vType="moto" speedFactor="1.02" vaporized=""/>
    <tripinfo id="flow_12_increasing_0_E_uturn.0" depart="0.00" departLane="S_in_1" departPos="62.82" departSpeed="9.85" departDelay="0.00" arrival="32.00" arrivalLane="S_out_1" arrivalPos="189.60" arrivalSpeed="14.04" duration="32.00" routeLength="321.05" waitingTime="0.00" waitingCount="0" stopTime="0.00" timeLoss="7.84" rerouteNo="0" devices="vehroute_flow_12_increasing_0_E_uturn.0 tripinfo_flow_12_increasing_0_E_uturn.0" vType="moto" speedFactor="1.03" vaporized=""/>
    <tripinfo id="flow_5_increasing_0_S_straight.0" depart="0.00" departLane="W_in_1" departPos="107.37" departSpeed="7.21" departDelay="0.00" arrival="34.00" arrivalLane="S_out_0" arrivalPos="189.60" arrivalSpeed="15.53" duration="34.00" routeLength="280.86" waitingTime="9.00" waitingCount="1" stopTime="0.00" timeLoss="15.97" rerouteNo="0" devices="vehroute_flow_5_increasing_0_S_straight.0 tripinfo_flow_5_increasing_0_S_straight.0" vType="moto" speedFactor="1.15" vaporized=""/>
    <tripinfo id="flow_9_increasing_0_E_straight.0" depart="0.00" departLane="E_in_1" departPos="75.19" departSpeed="11.55" departDelay="0.00" arrival="37.00" arrivalLane="W_out_1" arrivalPos="189.60" arrivalSpeed="12.77" duration="37.00" routeLength="324.81" waitingTime="5.00" waitingCount="1" stopTime="0.00" timeLoss="11.94" rerouteNo="0" devices="vehroute_flow_9_increasing_0_E_straight.0 tripinfo_flow_9_increasing_0_E_straight.0" vType="car" speedFactor="0.94" vaporized=""/>
    <tripinfo id="flow_11_increasing_0_E_right.0" depart="0.00" departLane="E_in_0" departPos="181.37" departSpeed="2.12" departDelay="0.00" arrival="39.00" arrivalLane="N_out_0" arrivalPos="189.60" arrivalSpeed="13.30" duration="39.00" routeLength="206.86" waitingTime="14.00" waitingCount="1" stopTime="0.00" timeLoss="22.59" rerouteNo="0" devices="vehroute_flow_11_increasing_0_E_right.0 tripinfo_flow_11_increasing_0_E_right.0" vType="bus" speedFactor="0.96" vaporized=""/>
    <tripinfo id="flow_15_increasing_0_W_right.0" depart="0.00" departLane="W_in_1" departPos="45.77" departSpeed="6.73" departDelay="0.00" arrival="40.00" arrivalLane="S_out_0" arrivalPos="189.60" arrivalSpeed="11.68" duration="40.00" routeLength="342.46" waitingTime="2.00" waitingCount="1" stopTime="0.00" timeLoss="9.42" rerouteNo="0" devices="vehroute_flow_15_increasing_0_W_right.0 tripinfo_flow_15_increasing_0_W_right.0" vType="moto" speedFactor="0.85" vaporized=""/>
    <tripinfo id="flow_16_increasing_0_W_uturn.0" depart="0.00" departLane="W_in_1" departPos="126.68" departSpeed="1.28" departDelay="0.00" arrival="40.00" arrivalLane="W_out_1" arrivalPos="189.60" arrivalSpeed="13.84" duration="40.00" routeLength="257.19" waitingTime="9.00" waitingCount="2" stopTime="0.00" timeLoss="20.75" rerouteNo="0" devices="vehroute_flow_16_increasing_0_W_uturn.0 tripinfo_flow_16_increasing_0_W_uturn.0" vType="moto" speedFactor="1.04" vaporized=""/>
    <tripinfo id="flow_6_increasing_0_S_left.0" depart="0.00" departLane="E_in_1" departPos="166.01" departSpeed="0.74" departDelay="0.00" arrival="42.00" arrivalLane="N_out_0" arrivalPos="189.60" arrivalSpeed="11.72" duration="42.00" routeLength="222.22" waitingTime="12.00" waitingCount="1" stopTime="0.00" timeLoss="22.79" rerouteNo="0" devices="vehroute_flow_6_increasing_0_S_left.0 tripinfo_flow_6_increasing_0_S_left.0" vType="moto" speedFactor="0.88" vaporized=""/>
    <tripinfo id="flow_13_increasing_0_W_straight.0" depart="0.00" departLane="W_in_0" departPos="77.99" departSpeed="1.50" departDelay="0.00" arrival="44.00" arrivalLane="S_out_0" arrivalPos="189.60" arrivalSpeed="11.87" duration="44.00" routeLength="310.24" waitingTime="0.00" waitingCount="0" stopTime="0.00" timeLoss="16.55" rerouteNo="0" devices="vehroute_flow_13_increasing_0_W_straight.0 tripinfo_flow_13_increasing_0_W_straight.0" vType="bus" speedFactor="0.86" vaporized=""/>
    <tripinfo id="flow_10_increasing_0_E_left.0" depart="0.00" departLane="S_in_0" departPos="57.21" departSpeed="3.56" departDelay="0.00" arrival="58.00" arrivalLane="W_out_1" arrivalPos="189.60" arrivalSpeed="14.90" duration="58.00" routeLength="341.34" waitingTime="24.00" waitingCount="1" stopTime="0.00" timeLoss="34.24" rerouteNo="0" devices="vehroute_flow_10_increasing_0_E_left.0 tripinfo_flow_10_increasing_0_E_left.0" vType="car" speedFactor="1.08" vaporized=""/>
    <tripinfo id="flow_1_increasing_0_N_straight.0" depart="0.00" departLane="S_in_0" departPos="8.62" departSpeed="8.51" departDelay="0.00" arrival="64.00" arrivalLane="E_out_0" arrivalPos="189.60" arrivalSpeed="11.16" duration="64.00" routeLength="379.61" waitingTime="21.00" waitingCount="1" stopTime="0.00" timeLoss="31.11" rerouteNo="0" devices="vehroute_flow_1_increasing_0_N_straight.0 tripinfo_flow_1_increasing_0_N_straight.0" vType="truck" speedFactor="0.86" vaporized=""/>
    <tripinfo id="flow_1_increasing_0_N_straight.1" depart="70.00" departLane="S_in_1" departPos="121.65" departSpeed="2.92" departDelay="0.19" arrival="93.00" arrivalLane="E_out_0" arrivalPos="189.60" arrivalSpeed="15.46" duration="23.00" routeLength="266.58" waitingTime="0.00" waitingCount="0" stopTime="0.00" timeLoss="5.17" rerouteNo="0" devices="vehroute_flow_1_increasing_0_N_straight.1 tripinfo_flow_1_increasing_0_N_straight.1" vType="moto" speedFactor="1.15" vaporized=""/>
    <tripinfo id="flow_9_increasing_0_E_straight.1" depart="65.00" departLane="E_in_0" departPos="131.13" departSpeed="9.54" departDelay="0.90" arrival="102.00" arrivalLane="W_out_0" arrivalPos="189.60" arrivalSpeed="15.09" duration="37.00" routeLength="268.87" waitingTime="13.00" waitingCount="1" stopTime="0.00" timeLoss="19.96" rerouteNo="0" devices="vehroute_flow_9_increasing_0_E_straight.1 tripinfo_flow_9_increasing_0_E_straight.1" vType="moto" speedFactor="1.16" vaporized=""/>
    <tripinfo id="flow_5_increasing_0_S_straight.1" depart="67.00" departLane="W_in_1" departPos="58.36" departSpeed="11.64" departDelay="0.67" arrival="106.00" arrivalLane="S_out_0" arrivalPos="189.60" arrivalSpeed="11.76" duration="39.00" routeLength="329.87" waitingTime="4.00" waitingCount="1" stopTime="0.00" timeLoss="10.25" rerouteNo="0" devices="vehroute_flow_5_increasing_0_S_straight.1 tripinfo_flow_5_increasing_0_S_straight.1" vType="moto" speedFactor="0.87" vaporized=""/>
    <tripinfo id="flow_13_increasing_0_W_straight.1" depart="68.00" departLane="W_in_1" departPos="31.93" departSpeed="9.28" departDelay="0.66" arrival="107.00" arrivalLane="S_out_0" arrivalPos="189.60" arrivalSpeed="13.75" duration="39.00" routeLength="356.30" waitingTime="4.00" waitingCount="1" stopTime="0.00" timeLoss="15.57" rerouteNo="0" devices="vehroute_flow_13_increasing_0_W_straight.1 tripinfo_flow_13_increasing_0_W_straight.1" vType="moto" speedFactor="1.19" vaporized=""/>
    <tripinfo id="flow_9_increasing_0_E_straight.2" depart="129.00" departLane="E_in_1" departPos="52.87" departSpeed="0.38" departDelay="0.79" arrival="159.00" arrivalLane="W_out_0" arrivalPos="189.60" arrivalSpeed="13.77" duration="30.00" routeLength="347.13" waitingTime="0.00" waitingCount="0" stopTime="0.00" timeLoss="4.33" rerouteNo="0" devices="vehroute_flow_9_increasing_0_E_straight.2 tripinfo_flow_9_increasing_0_E_straight.2" vType="moto" speedFactor="0.99" vaporized=""/>
    <tripinfo id="flow_13_increasing_0_W_straight.2" depart="135.00" departLane="W_in_1" departPos="59.51" departSpeed="13.32" departDelay="0.32" arrival="164.00" arrivalLane="S_out_0" arrivalPos="189.60" arrivalSpeed="13.01" duration="29.00" routeLength="328.72" waitingTime="0.00" waitingCount="0" stopTime="0.00" timeLoss="3.28" rerouteNo="0" devices="vehroute_flow_13_increasing_0_W_straight.2 tripinfo_flow_13_increasing_0_W_straight.2" vType="truck" speedFactor="0.97" vaporized=""/>
    <tripinfo id="flow_1_increasing_0_N_straight.2" depart="140.00" departLane="S_in_1" departPos="107.53" departSpeed="1.11" departDelay="0.38" arrival="167.00" arrivalLane="E_out_0" arrivalPos="189.60" arrivalSpeed="12.31" duration="27.00" routeLength="280.70" waitingTime="0.00" waitingCount="0" stopTime="0.00" timeLoss="4.67" rerouteNo="0" devices="vehroute_flow_1_increasing_0_N_straight.2 tripinfo_flow_1_increasing_0_N_straight.2" vType="moto" speedFactor="0.93" vaporized=""/>
    <tripinfo id="flow_14_increasing_0_W_left.1" depart="166.00" departLane="N_in_1" departPos="110.92" departSpeed="11.99" departDelay="0.16" arrival="187.00" arrivalLane="S_out_1" arrivalPos="189.60" arrivalSpeed="14.15" duration="21.00" routeLength="289.08" waitingTime="0.00" waitingCount="0" stopTime="0.00" timeLoss="0.82" rerouteNo="0" devices="vehroute_flow_14_increasing_0_W_left.1 tripinfo_flow_14_increasing_0_W_left.1" vType="moto" speedFactor="1.05" vaporized=""/>
    <tripinfo id="flow_10_increasing_0_E_left.1" depart="170.00" departLane="S_in_1" departPos="185.21" departSpeed="3.91" departDelay="0.80" arrival="196.00" arrivalLane="W_out_1" arrivalPos="189.60" arrivalSpeed="10.40" duration="26.00" routeLength="213.34" waitingTime="1.00" waitingCount="1" stopTime="0.00" timeLoss="4.71" rerouteNo="0" devices="vehroute_flow_10_increasing_0_E_left.1 tripinfo_flow_10_increasing_0_E_left.1" vType="car" speedFactor="0.77" vaporized=""/>
    <tripinfo id="flow_2_increasing_0_N_left.1" depart="163.00" departLane="N_in_0" departPos="8.88" departSpeed="2.82" departDelay="0.40" arrival="197.00" arrivalLane="W_out_0" arrivalPos="189.60" arrivalSpeed="14.77" duration="34.00" routeLength="379.35" waitingTime="0.00" waitingCount="0" stopTime="0.00" timeLoss="8.94" rerouteNo="0" devices="vehroute_flow_2_increasing_0_N_left.1 tripinfo_flow_2_increasing_0_N_left.1" vType="moto" speedFactor="1.12" vaporized=""/>
    <tripinfo id="flow_7_increasing_0_S_right.1" depart="163.00" departLane="S_in_1" departPos="66.71" departSpeed="7.87" departDelay="0.40" arrival="199.00" arrivalLane="E_out_0" arrivalPos="189.60" arrivalSpeed="10.37" duration="36.00" routeLength="321.52" waitingTime="0.00" waitingCount="0" stopTime="0.00" timeLoss="5.40" rerouteNo="0" devices="vehroute_flow_7_increasing_0_S_right.1 tripinfo_flow_7_increasing_0_S_right.1" vType="container" speedFactor="0.78" vaporized=""/>
    <tripinfo id="flow_6_increasing_0_S_left.1" depart="166.00" departLane="E_in_0" departPos="73.90" departSpeed="9.22" departDelay="0.16" arrival="207.00" arrivalLane="N_out_0" arrivalPos="189.60" arrivalSpeed="14.80" duration="41.00" routeLength="314.33" waitingTime="11.00" waitingCount="1" stopTime="0.00" timeLoss="18.87" rerouteNo="0" devices="vehroute_flow_6_increasing_0_S_left.1 tripinfo_flow_6_increasing_0_S_left.1" vType="moto" speedFactor="1.08" vaporized=""/>
    <tripinfo id="flow_5_increasing_0_S_straight.2" depart="133.00" departLane="W_in_1" departPos="12.70" departSpeed="12.41" departDelay="0.33" arrival="208.00" arrivalLane="S_out_0" arrivalPos="189.60" arrivalSpeed="12.53" duration="75.00" routeLength="375.53" waitingTime="39.00" waitingCount="1" stopTime="0.00" timeLoss="45.91" rerouteNo="0" devices="vehroute_flow_5_increasing_0_S_straight.2 tripinfo_flow_5_increasing_0_S_straight.2" vType="moto" speedFactor="0.96" vaporized=""/>
    <tripinfo id="flow_15_increasing_0_W_right.1" depart="164.00" departLane="W_in_1" departPos="128.68" departSpeed="3.06" departDelay="0.60" arrival="209.00" arrivalLane="S_out_0" arrivalPos="189.60" arrivalSpeed="13.13" duration="45.00" routeLength="259.55" waitingTime="17.00" waitingCount="1" stopTime="0.00" timeLoss="26.14" rerouteNo="0" devices="vehroute_flow_15_increasing_0_W_right.1 tripinfo_flow_15_increasing_0_W_right.1" vType="moto" speedFactor="1.04" vaporized=""/>
    <tripinfo id="flow_3_increasing_0_N_right.1" depart="174.00" departLane="N_in_1" departPos="175.36" departSpeed="7.25" departDelay="0.39" arrival="209.00" arrivalLane="W_out_0" arrivalPos="189.60" arrivalSpeed="12.66" duration="35.00" routeLength="212.87" waitingTime="3.00" waitingCount="1" stopTime="0.00" timeLoss="17.43" rerouteNo="0" devices="vehroute_flow_3_increasing_0_N_right.1 tripinfo_flow_3_increasing_0_N_right.1" vType="container" speedFactor="0.91" vaporized=""/>
    <tripinfo id="flow_11_increasing_0_E_right.1" depart="170.00" departLane="E_in_0" departPos="19.85" departSpeed="3.71" departDelay="0.80" arrival="211.00" arrivalLane="N_out_0" arrivalPos="189.60" arrivalSpeed="11.83" duration="41.00" routeLength="368.38" waitingTime="1.00" waitingCount="1" stopTime="0.00" timeLoss="9.80" rerouteNo="0" devices="vehroute_flow_11_increasing_0_E_right.1 tripinfo_flow_11_increasing_0_E_right.1" vType="moto" speedFactor="0.88" vaporized=""/>
    <tripinfo id="flow_9_increasing_0_E_straight.3" depart="193.00" departLane="E_in_0" departPos="134.76" departSpeed="5.03" departDelay="0.69" arrival="218.00" arrivalLane="W_out_0" arrivalPos="189.60" arrivalSpeed="11.50" duration="25.00" routeLength="265.24" waitingTime="0.00" waitingCount="0" stopTime="0.00" timeLoss="2.28" rerouteNo="0" devices="vehroute_flow_9_increasing_0_E_straight.3 tripinfo_flow_9_increasing_0_E_straight.3" vType="truck" speedFactor="0.85" vaporized=""/>
    <tripinfo id="flow_5_increasing_0_S_straight.3" depart="200.00" departLane="W_in_1" departPos="108.76" departSpeed="13.07" departDelay="1.00" arrival="222.00" arrivalLane="S_out_0" arrivalPos="189.60" arrivalSpeed="14.46" duration="22.00" routeLength="279.47" waitingTime="0.00" waitingCount="0" stopTime="0.00" timeLoss="2.52" rerouteNo="0" devices="vehroute_flow_5_increasing_0_S_straight.3 tripinfo_flow_5_increasing_0_S_straight.3" vType="moto" speedFactor="1.08" vaporized=""/>
    <tripinfo id="flow_1_increasing_0_N_straight.3" depart="210.00" departLane="S_in_0" departPos="19.25" departSpeed="10.28" departDelay="0.58" arrival="240.00" arrivalLane="E_out_0" arrivalPos="189.60" arrivalSpeed="13.51" duration="30.00" routeLength="368.98" waitingTime="0.00" waitingCount="0" stopTime="0.00" timeLoss="3.85" rerouteNo="0" devices="vehroute_flow_1_increasing_0_N_straight.3 tripinfo_flow_1_increasing_0_N_straight.3" vType="moto" speedFactor="1.06" vaporized=""/>
    <tripinfo id="flow_13_increasing_0_W_straight.3" depart="203.00" departLane="W_in_1" departPos="77.94" departSpeed="4.74" departDelay="0.98" arrival="274.00" arrivalLane="S_out_0" arrivalPos="189.60" arrivalSpeed="15.18" duration="71.00" routeLength="310.29" waitingTime="43.00" waitingCount="1" stopTime="0.00" timeLoss="50.80" rerouteNo="0" devices="vehroute_flow_13_increasing_0_W_straight.3 tripinfo_flow_13_increasing_0_W_straight.3" vType="moto" speedFactor="1.20" vaporized=""/>
    <tripinfo id="flow_9_increasing_0_E_straight.4" depart="257.00" departLane="E_in_0" departPos="148.08" departSpeed="8.76" departDelay="0.59" arrival="278.00" arrivalLane="W_out_0" arrivalPos="189.60" arrivalSpeed="12.98" duration="21.00" routeLength="251.92" waitingTime="0.00" waitingCount="0" stopTime="0.00" timeLoss="1.01" rerouteNo="0" devices="vehroute_flow_9_increasing_0_E_straight.4 tripinfo_flow_9_increasing_0_E_straight.4" vType="bus" speedFactor="0.95" vaporized=""/>
    <tripinfo id="flow_13_increasing_0_W_straight.4" depart="270.00" departLane="W_in_0" departPos="167.23" departSpeed="1.71" departDelay="0.64" arrival="296.00" arrivalLane="S_out_0" arrivalPos="189.60" arrivalSpeed="11.83" duration="26.00" routeLength="221.00" waitingTime="0.00" waitingCount="0" stopTime="0.00" timeLoss="6.52" rerouteNo="0" devices="vehroute_flow_13_increasing_0_W_straight.4 tripinfo_flow_13_increasing_0_W_straight.4" vType="truck" speedFactor="0.87" vaporized=""/>
    <tripinfo id="flow_5_increasing_0_S_straight.4" depart="266.00" departLane="W_in_1" departPos="23.57" departSpeed="9.61" departDelay="0.66" arrival="300.00" arrivalLane="S_out_0" arrivalPos="189.60" arrivalSpeed="13.22" duration="34.00" routeLength="364.66" waitingTime="0.00" waitingCount="0" stopTime="0.00" timeLoss="5.79" rerouteNo="0" devices="vehroute_flow_5_increasing_0_S_straight.4 tripinfo_flow_5_increasing_0_S_straight.4" vType="container" speedFactor="0.97" vaporized=""/>
    <tripinfo id="flow_30_increasing_300_W_left.0" depart="300.00" departLane="W_in_1" departPos="188.98" departSpeed="0.62" departDelay="0.00" arrival="318.00" arrivalLane="N_out_1" arrivalPos="189.60" arrivalSpeed="14.71" duration="18.00" routeLength="209.57" waitingTime="0.00" waitingCount="0" stopTime="0.00" timeLoss="2.91" rerouteNo="0" devices="vehroute_flow_30_increasing_300_W_left.0 tripinfo_flow_30_increasing_300_W_left.0" vType="moto" speedFactor="1.10" vaporized=""/>
    <tripinfo id="flow_29_increasing_300_W_straight.0" depart="300.00" departLane="W_in_0" departPos="161.41" departSpeed="1.62" departDelay="0.00" arrival="320.00" arrivalLane="E_out_0" arrivalPos="189.60" arrivalSpeed="13.40" duration="20.00" routeLength="238.59" waitingTime="0.00" waitingCount="0" stopTime="0.00" timeLoss="2.84" rerouteNo="0" devices="vehroute_flow_29_increasing_300_W_straight.0 tripinfo_flow_29_increasing_300_W_straight.0" vType="moto" speedFactor="1.02" vaporized=""/>
    <tripinfo id="flow_21_increasing_300_S_straight.0" depart="300.00" departLane="E_in_1" departPos="108.70" departSpeed="8.47" departDelay="0.00" arrival="324.00" arrivalLane="N_out_0" arrivalPos="189.60" arrivalSpeed="13.38" duration="24.00" routeLength="279.53" waitingTime="0.00" waitingCount="0" stopTime="0.00" timeLoss="3.25" rerouteNo="0" devices="vehroute_flow_21_increasing_300_S_straight.0 tripinfo_flow_21_increasing_300_S_straight.0" vType="moto" speedFactor="1.03" vaporized=""/>
    <tripinfo id="flow_31_increasing_300_W_right.0" depart="300.00" departLane="W_in_1" departPos="148.65" departSpeed="12.64" departDelay="0.00" arrival="324.00" arrivalLane="S_out_0" arrivalPos="189.60" arrivalSpeed="12.34" duration="24.00" routeLength="239.58" waitingTime="0.00" waitingCount="0" stopTime="0.00" timeLoss="4.93" rerouteNo="0" devices="vehroute_flow_31_increasing_300_W_right.0 tripinfo_flow_31_increasing_300_W_right.0" vType="moto" speedFactor="0.97" vaporized=""/>
    <tripinfo id="flow_27_increasing_300_E_right.0" depart="300.00" departLane="E_in_1" departPos="124.88" departSpeed="0.01" departDelay="0.00" arrival="325.00" arrivalLane="N_out_0" arrivalPos="189.60" arrivalSpeed="14.08" duration="25.00" routeLength="263.35" waitingTime="0.00" waitingCount="0" stopTime="0.00" timeLoss="7.10" rerouteNo="0" devices="vehroute_flow_27_increasing_300_E_right.0 tripinfo_flow_27_increasing_300_E_right.0" vType="moto" speedFactor="1.10" vaporized=""/>
    <tripinfo id="flow_28_increasing_300_E_uturn.0" depart="300.00" departLane="E_in_1" departPos="172.37" departSpeed="0.15" departDelay="0.00" arrival="325.00" arrivalLane="E_out_1" arrivalPos="189.60" arrivalSpeed="11.31" duration="25.00" routeLength="211.50" waitingTime="0.00" waitingCount="0" stopTime="0.00" timeLoss="6.52" rerouteNo="0" devices="vehroute_flow_28_increasing_300_E_uturn.0 tripinfo_flow_28_increasing_300_E_uturn.0" vType="car" speedFactor="0.90" vaporized=""/>
    <tripinfo id="flow_25_increasing_300_E_straight.0" depart="300.00" departLane="E_in_0" departPos="31.76" departSpeed="13.05" departDelay="0.00" arrival="327.00" arrivalLane="W_out_0" arrivalPos="189.60" arrivalSpeed="14.12" duration="27.00" routeLength="368.24" waitingTime="0.00" waitingCount="0" stopTime="0.00" timeLoss="1.42" rerouteNo="0" devices="vehroute_flow_25_increasing_300_E_straight.0 tripinfo_flow_25_increasing_300_E_straight.0" vType="moto" speedFactor="1.04" vaporized=""/>
    <tripinfo id="flow_26_increasing_300_E_left.0" depart="300.00" departLane="E_in_1" departPos="89.17" departSpeed="10.00" departDelay="0.00" arrival="329.00" arrivalLane="S_out_1" arrivalPos="189.60" arrivalSpeed="11.96" duration="29.00" routeLength="309.38" waitingTime="0.00" waitingCount="0" stopTime="0.00" timeLoss="3.43" rerouteNo="0" devices="vehroute_flow_26_increasing_300_E_left.0 tripinfo_flow_26_increasing_300_E_left.0" vType="moto" speedFactor="0.90" vaporized=""/>
    <tripinfo id="flow_24_increasing_300_S_uturn.0" depart="300.00" departLane="S_in_1" departPos="168.21" departSpeed="11.63" departDelay="0.00" arrival="338.00" arrivalLane="S_out_1" arrivalPos="189.60" arrivalSpeed="15.52" duration="38.00" routeLength="215.66" waitingTime="16.00" waitingCount="1" stopTime="0.00" timeLoss="22.83" rerouteNo="0" devices="vehroute_flow_24_increasing_300_S_uturn.0 tripinfo_flow_24_increasing_300_S_uturn.0" vType="moto" speedFactor="1.14" vaporized=""/>
    <tripinfo id="flow_1_increasing_0_N_straight.4" depart="280.00" departLane="S_in_0" departPos="8.08" departSpeed="6.42" departDelay="0.77" arrival="339.00" arrivalLane="E_out_0" arrivalPos="189.60" arrivalSpeed="12.60" duration="59.00" routeLength="380.15" waitingTime="21.00" waitingCount="1" stopTime="0.00" timeLoss="29.64" rerouteNo="0" devices="vehroute_flow_1_increasing_0_N_straight.4 tripinfo_flow_1_increasing_0_N_straight.4" vType="car" speedFactor="0.96" vaporized=""/>
    <tripinfo id="flow_17_increasing_300_N_straight.0" depart="300.00" departLane="N_in_0" departPos="185.47" departSpeed="4.13" departDelay="0.00" arrival="340.00" arrivalLane="S_out_0" arrivalPos="189.60" arrivalSpeed="12.73" duration="40.00" routeLength="214.53" waitingTime="16.00" waitingCount="1" stopTime="0.00" timeLoss="23.22" rerouteNo="0" devices="vehroute_flow_17_increasing_300_N_straight.0 tripinfo_flow_17_increasing_300_N_straight.0" vType="car" speedFactor="0.94" vaporized=""/>
    <tripinfo id="flow_18_increasing_300_N_left.0" depart="300.00" departLane="N_in_1" departPos="171.48" departSpeed="1.99" departDelay="0.00" arrival="340.00" arrivalLane="E_out_1" arrivalPos="189.60" arrivalSpeed="12.05" duration="40.00" routeLength="227.07" waitingTime="15.00" waitingCount="1" stopTime="0.00" timeLoss="21.46" rerouteNo="0" devices="vehroute_flow_18_increasing_300_N_left.0 tripinfo_flow_18_increasing_300_N_left.0" vType="moto" speedFactor="0.93" vaporized=""/>
    <tripinfo id="flow_23_increasing_300_S_right.0" depart="300.00" departLane="S_in_0" departPos="104.14" departSpeed="12.09" departDelay="0.00" arrival="341.00" arrivalLane="E_out_0" arrivalPos="189.60" arrivalSpeed="13.71" duration="41.00" routeLength="284.09" waitingTime="13.00" waitingCount="1" stopTime="0.00" timeLoss="20.59" rerouteNo="0" devices="vehroute_flow_23_increasing_300_S_right.0 tripinfo_flow_23_increasing_300_S_right.0" vType="moto" speedFactor="1.07" vaporized=""/>
    <tripinfo id="flow_19_increasing_300_N_right.0" depart="300.00" departLane="N_in_0" departPos="81.69" departSpeed="8.43" departDelay="0.00" arrival="343.00" arrivalLane="W_out_0" arrivalPos="189.60" arrivalSpeed="12.36" duration="43.00" routeLength="306.54" waitingTime="10.00" waitingCount="1" stopTime="0.00" timeLoss="17.04" rerouteNo="0" devices="vehroute_flow_19_increasing_300_N_right.0 tripinfo_flow_19_increasing_300_N_right.0" vType="car" speedFactor="0.91" vaporized=""/>
    <tripinfo id="flow_20_increasing_300_N_uturn.0" depart="300.00" departLane="N_in_0" departPos="71.94" departSpeed="3.41" departDelay="0.00" arrival="343.00" arrivalLane="N_out_1" arrivalPos="189.60" arrivalSpeed="11.97" duration="43.00" routeLength="311.93" waitingTime="8.00" waitingCount="1" stopTime="0.00" timeLoss="16.47" rerouteNo="0" devices="vehroute_flow_20_increasing_300_N_uturn.0 tripinfo_flow_20_increasing_300_N_uturn.0" vType="car" speedFactor="0.88" vaporized=""/>
    <tripinfo id="flow_22_increasing_300_S_left.0" depart="300.00" departLane="S_in_0" departPos="121.56" departSpeed="10.88" departDelay="0.00" arrival="343.00" arrivalLane="W_out_1" arrivalPos="189.60" arrivalSpeed="12.35" duration="43.00" routeLength="276.99" waitingTime="13.00" waitingCount="1" stopTime="0.00" timeLoss="19.45" rerouteNo="0" devices="vehroute_flow_22_increasing_300_S_left.0 tripinfo_flow_22_increasing_300_S_left.0" vType="moto" speedFactor="0.91" vaporized=""/>
    <tripinfo id="flow_32_increasing_300_W_uturn.0" depart="300.00" departLane="N_in_0" departPos="63.10" departSpeed="3.34" departDelay="0.00" arrival="345.00" arrivalLane="N_out_1" arrivalPos="189.60" arrivalSpeed="13.00" duration="45.00" routeLength="320.77" waitingTime="6.00" waitingCount="1" stopTime="0.00" timeLoss="19.77" rerouteNo="0" devices="vehroute_flow_32_increasing_300_W_uturn.0 tripinfo_flow_32_increasing_300_W_uturn.0" vType="moto" speedFactor="0.98" vaporized=""/>
    <tripinfo id="flow_17_increasing_300_N_straight.1" depart="351.00" departLane="N_in_0" departPos="149.69" departSpeed="1.91" departDelay="0.74" arrival="372.00" arrivalLane="S_out_0" arrivalPos="189.60" arrivalSpeed="14.71" duration="21.00" routeLength="250.31" waitingTime="0.00" waitingCount="0" stopTime="0.00" timeLoss="3.53" rerouteNo="0" devices="vehroute_flow_17_increasing_300_N_straight.1 tripinfo_flow_17_increasing_300_N_straight.1" vType="moto" speedFactor="1.06" vaporized=""/>
    <tripinfo id="flow_25_increasing_300_E_straight.1" depart="347.00" departLane="E_in_1" departPos="84.66" departSpeed="2.15" departDelay="0.85" arrival="402.00" arrivalLane="W_out_0" arrivalPos="189.60" arrivalSpeed="13.68" duration="55.00" routeLength="315.34" waitingTime="23.00" waitingCount="1" stopTime="0.00" timeLoss="32.00" rerouteNo="0" devices="vehroute_flow_25_increasing_300_E_straight.1 tripinfo_flow_25_increasing_300_E_straight.1" vType="moto" speedFactor="1.01" vaporized=""/>
    <tripinfo id="flow_21_increasing_300_S_straight.1" depart="350.00" departLane="E_in_1" departPos="84.30" departSpeed="7.92" departDelay="0.52" arrival="406.00" arrivalLane="N_out_0" arrivalPos="189.60" arrivalSpeed="12.01" duration="56.00" routeLength="303.93" waitingTime="20.00" waitingCount="1" stopTime="0.00" timeLoss="30.70" rerouteNo="0" devices="vehroute_flow_21_increasing_300_S_straight.1 tripinfo_flow_21_increasing_300_S_straight.1" vType="truck" speedFactor="0.90" vaporized=""/>