<?xml version="1.0" encoding="UTF-8"?>

<!-- generated on 2025-12-09 21:35:04 by Eclipse SUMO sumo Version 1.18.0
<configuration xmlns:xsi="http://www.w3.org/2001/XMLSchema-instance" xsi:noNamespaceSchemaLocation="http://sumo.dlr.de/xsd/sumoConfiguration.xsd">

    <input>
        <net-file value="/workspace/nets/120p4k/net.net.xml"/>
        <route-files value="/workspace/nets/120p4k/route_temp_334_123834910177792_74393419.rou.xml"/>
    </input>

    <output>
        <summary-output value="results/summary_ep_2.xml"/>
        <tripinfo-output value="results/tripinfo_ep_2.xml"/>
        <vehroute-output value="results/vehroute_ep_2.xml"/>
    </output>

    <time>
        <begin value="0"/>
    </time>

    <report>
        <verbose value="true"/>
        <no-step-log value="true"/>
    </report>

    <traci_server>
        <remote-port value="58725"/>
    </traci_server>

    <gui_only>
        <gui-settings-file value="/workspace/nets/120p4k/gui-settings.xml"/>
        <quit-on-end value="true"/>
    </gui_only>

</configuration>
-->

<tripinfos xmlns:xsi="http://www.w3.org/2001/XMLSchema-instance" xsi:noNamespaceSchemaLocation="http://sumo.dlr.de/xsd/tripinfo_file.xsd">
    <tripinfo id="flow_12_increasing_0_E_uturn.0" depart="0.00" departLane="S_in_0" departPos="129.89" departSpeed="13.76" departDelay="0.00" arrival="23.00" arrivalLane="S_out_1" arrivalPos="189.60" arrivalSpeed="14.18" duration="23.00" routeLength="253.98" waitingTime="0.00" waitingCount="0" stopTime="0.00" timeLoss="4.47" rerouteNo="0" devices="vehroute_flow_12_increasing_0_E_uturn.0 tripinfo_flow_12_increasing_0_E_uturn.0" vType="moto" speedFactor="1.03" vaporized=""/>
    <tripinfo id="flow_3_increasing_0_N_right.0" depart="0.00" departLane="N_in_0" departPos="103.38" departSpeed="3.81" departDelay="0.00" arrival="24.00" arrivalLane="W_out_0" arrivalPos="189.60" arrivalSpeed="15.18" duration="24.00" routeLength="284.85" waitingTime="0.00" waitingCount="0" stopTime="0.00" timeLoss="4.59" rerouteNo="0" devices="vehroute_flow_3_increasing_0_N_right.0 tripinfo_flow_3_increasing_0_N_right.0" vType="moto" speedFactor="1.11" vaporized=""/>
    <tripinfo id="flow_6_increasing_0_S_left.0" depart="0.00" departLane="S_in_1" departPos="166.01" departSpeed="0.74" departDelay="0.00" arrival="25.00" arrivalLane="W_out_1" arrivalPos="189.60" arrivalSpeed="11.57" duration="25.00" routeLength="232.54" waitingTime="0.00" waitingCount="0" stopTime="0.00" timeLoss="4.41" rerouteNo="0" devices="vehroute_flow_6_increasing_0_S_left.0 tripinfo_flow_6_increasing_0_S_left.0" vType="moto" speedFactor="0.88" vaporized=""/>
    <tripinfo id="flow_5_increasing_0_S_straight.0" depart="0.00" departLane="S_in_1" departPos="107.37" departSpeed="7.21" departDelay="0.00" arrival="26.00" arrivalLane="N_out_0" arrivalPos="189.60" arrivalSpeed="15.76" duration="26.00" routeLength="292.63" waitingTime="0.00" waitingCount="0" stopTime="0.00" timeLoss="6.78" rerouteNo="0" devices="vehroute_flow_5_increasing_0_S_straight.0 tripinfo_flow_5_increasing_0_S_straight.0" vType="moto" speedFactor="1.15" vaporized=""/>
    <tripinfo id="flow_8_increasing_0_S_uturn.0" depart="0.00" departLane="S_in_0" departPos="120.11" departSpeed="4.48" departDelay="0.00" arrival="26.00" arrivalLane="S_out_1" arrivalPos="189.60" arrivalSpeed="13.72" duration="26.00" routeLength="263.76" waitingTime="0.00" waitingCount="0" stopTime="0.00" timeLoss="6.61" rerouteNo="0" devices="vehroute_flow_8_increasing_0_S_uturn.0 tripinfo_flow_8_increasing_0_S_uturn.0" vType="moto" speedFactor="1.05" vaporized=""/>
    <tripinfo id="flow_4_increasing_0_N_uturn.0" depart="0.00" departLane="N_in_1" departPos="127.60" departSpeed="0.08" departDelay="0.00" arrival="30.00" arrivalLane="N_out_1" arrivalPos="189.60" arrivalSpeed="11.57" duration="30.00" routeLength="256.27" waitingTime="0.00" waitingCount="0" stopTime="0.00" timeLoss="8.37" rerouteNo="0" devices="vehroute_flow_4_increasing_0_N_uturn.0 tripinfo_flow_4_increasing_0_N_uturn.0" vType="moto" speedFactor="0.91" vaporized=""/>
    <tripinfo id="flow_14_increasing_0_W_left.0" depart="0.00" departLane="E_in_1" departPos="50.07" departSpeed="13.54" departDelay="0.00" arrival="35.00" arrivalLane="N_out_0" arrivalPos="189.60" arrivalSpeed="13.95" duration="35.00" routeLength="338.16" waitingTime="5.00" waitingCount="1" stopTime="0.00" timeLoss="9.97" rerouteNo="0" devices="vehroute_flow_14_increasing_0_W_left.0 tripinfo_flow_14_increasing_0_W_left.0" vType="moto" speedFactor="1.01" vaporized=""/>
    <tripinfo id="flow_9_increasing_0_E_straight.0" depart="0.00" departLane="W_in_0" departPos="168.29" departSpeed="10.73" departDelay="0.00" arrival="37.00" arrivalLane="N_out_1" arrivalPos="189.60" arrivalSpeed="12.46" duration="37.00" routeLength="230.26" waitingTime="13.00" waitingCount="1" stopTime="0.00" timeLoss="18.49" rerouteNo="0" devices="vehroute_flow_9_increasing_0_E_straight.0 tripinfo_flow_9_increasing_0_E_straight.0" vType="car" speedFactor="0.94" vaporized=""/>
    <tripinfo id="flow_16_increasing_0_W_uturn.0" depart="0.00" departLane="W_in_0" departPos="126.68" departSpeed="11.71" departDelay="0.00" arrival="38.00" arrivalLane="W_out_1" arrivalPos="189.60" arrivalSpeed="13.66" duration="38.00" routeLength="257.19" waitingTime="11.00" waitingCount="1" stopTime="0.00" timeLoss="18.68" rerouteNo="0" devices="vehroute_flow_16_increasing_0_W_uturn.0 tripinfo_flow_16_increasing_0_W_uturn.0" vType="moto" speedFactor="1.04" vaporized=""/>
    <tripinfo id="flow_15_increasing_0_W_right.0" depart="0.00" departLane="W_in_1" departPos="108.38" departSpeed="1.98" departDelay="0.00" arrival="39.00" arrivalLane="S_out_0" arrivalPos="189.60" arrivalSpeed="10.73" duration="39.00" routeLength="279.85" waitingTime="6.00" waitingCount="1" stopTime="0.00" timeLoss="13.86" rerouteNo="0" devices="vehroute_flow_15_increasing_0_W_right.0 tripinfo_flow_15_increasing_0_W_right.0" vType="moto" speedFactor="0.85" vaporized=""/>
    <tripinfo id="flow_13_increasing_0_W_straight.0" depart="0.00" departLane="W_in_0" departPos="23.77" departSpeed="1.55" departDelay="0.00" arrival="41.00" arrivalLane="E_out_0" arrivalPos="189.60" arrivalSpeed="11.97" duration="41.00" routeLength="376.23" waitingTime="0.00" waitingCount="0" stopTime="0.00" timeLoss="8.70" rerouteNo="0" devices="vehroute_flow_13_increasing_0_W_straight.0 tripinfo_flow_13_increasing_0_W_straight.0" vType="bus" speedFactor="0.86" vaporized=""/>
    <tripinfo id="flow_10_increasing_0_E_left.0" depart="0.00" departLane="E_in_0" departPos="44.88" departSpeed="8.19" departDelay="0.00" arrival="42.00" arrivalLane="S_out_1" arrivalPos="189.60" arrivalSpeed="14.86" duration="42.00" routeLength="353.67" waitingTime="6.00" waitingCount="2" stopTime="0.00" timeLoss="17.78" rerouteNo="0" devices="vehroute_flow_10_increasing_0_E_left.0 tripinfo_flow_10_increasing_0_E_left.0" vType="car" speedFactor="1.08" vaporized=""/>
    <tripinfo id="flow_11_increasing_0_E_right.0" depart="0.00" departLane="W_in_1" departPos="144.95" departSpeed="4.02" departDelay="0.00" arrival="45.00" arrivalLane="W_out_1" arrivalPos="189.60" arrivalSpeed="12.73" duration="45.00" routeLength="238.92" waitingTime="10.00" waitingCount="1" stopTime="0.00" timeLoss="25.61" rerouteNo="0" devices="vehroute_flow_11_increasing_0_E_right.0 tripinfo_flow_11_increasing_0_E_right.0" vType="bus" speedFactor="0.96" vaporized=""/>
    <tripinfo id="flow_7_increasing_0_S_right.0" depart="0.00" departLane="S_in_0" departPos="8.76" departSpeed="8.47" departDelay="0.00" arrival="54.00" arrivalLane="E_out_0" arrivalPos="189.60" arrivalSpeed="11.96" duration="54.00" routeLength="379.47" waitingTime="12.00" waitingCount="1" stopTime="0.00" timeLoss="21.71" rerouteNo="0" devices="vehroute_flow_7_increasing_0_S_right.0 tripinfo_flow_7_increasing_0_S_right.0" vType="bus" speedFactor="0.89" vaporized=""/>
    <tripinfo id="flow_1_increasing_0_N_straight.0" depart="0.00" departLane="N_in_0" departPos="8.62" departSpeed="8.51" departDelay="0.00" arrival="55.00" arrivalLane="S_out_0" arrivalPos="189.60" arrivalSpeed="11.68" duration="55.00" routeLength="391.38" waitingTime="11.00" waitingCount="1" stopTime="0.00" timeLoss="21.94" rerouteNo="0" devices="vehroute_flow_1_increasing_0_N_straight.0 tripinfo_flow_1_increasing_0_N_straight.0" vType="truck" speedFactor="0.86" vaporized=""/>
    <tripinfo id="flow_2_increasing_0_N_left.0" depart="0.00" departLane="W_in_1" departPos="8.27" departSpeed="8.33" departDelay="0.00" arrival="62.00" arrivalLane="N_out_1" arrivalPos="189.60" arrivalSpeed="12.92" duration="62.00" routeLength="390.28" waitingTime="18.00" waitingCount="2" stopTime="0.00" timeLoss="33.69" rerouteNo="0" devices="vehroute_flow_2_increasing_0_N_left.0 tripinfo_flow_2_increasing_0_N_left.0" vType="moto" speedFactor="1.02" vaporized=""/>
    <tripinfo id="flow_9_increasing_0_E_straight.1" depart="65.00" departLane="W_in_0" departPos="131.13" departSpeed="9.54" departDelay="0.90" arrival="86.00" arrivalLane="N_out_1" arrivalPos="189.60" arrivalSpeed="15.72" duration="21.00" routeLength="267.42" waitingTime="0.00" waitingCount="0" stopTime="0.00" timeLoss="3.59" rerouteNo="0" devices="vehroute_flow_9_increasing_0_E_straight.1 tripinfo_flow_9_increasing_0_E_straight.1" vType="moto" speedFactor="1.16" vaporized=""/>
    <tripinfo id="flow_13_increasing_0_W_straight.1" depart="68.00" departLane="W_in_1" departPos="31.93" departSpeed="9.28" departDelay="0.66" arrival="93.00" arrivalLane="E_out_1" arrivalPos="189.60" arrivalSpeed="15.77" duration="25.00" routeLength="368.07" waitingTime="0.00" waitingCount="0" stopTime="0.00" timeLoss="1.53" rerouteNo="0" devices="vehroute_flow_13_increasing_0_W_straight.1 tripinfo_flow_13_increasing_0_W_straight.1" vType="moto" speedFactor="1.19" vaporized=""/>
    <tripinfo id="flow_1_increasing_0_N_straight.1" depart="70.00" departLane="N_in_1" departPos="121.65" departSpeed="2.92" departDelay="0.19" arrival="100.00" arrivalLane="S_out_0" arrivalPos="189.60" arrivalSpeed="14.69" duration="30.00" routeLength="278.35" waitingTime="3.00" waitingCount="1" stopTime="0.00" timeLoss="11.94" rerouteNo="0" devices="vehroute_flow_1_increasing_0_N_straight.1 tripinfo_flow_1_increasing_0_N_straight.1" vType="moto" speedFactor="1.15" vaporized=""/>
    <tripinfo id="flow_5_increasing_0_S_straight.1" depart="67.00" departLane="S_in_1" departPos="58.36" departSpeed="11.64" departDelay="0.67" arrival="103.00" arrivalLane="N_out_0" arrivalPos="189.60" arrivalSpeed="11.86" duration="36.00" routeLength="341.64" waitingTime="1.00" waitingCount="1" stopTime="0.00" timeLoss="7.41" rerouteNo="0" devices="vehroute_flow_5_increasing_0_S_straight.1 tripinfo_flow_5_increasing_0_S_straight.1" vType="moto" speedFactor="0.87" vaporized=""/>
    <tripinfo id="flow_9_increasing_0_E_straight.2" depart="129.00" departLane="W_in_1" departPos="52.87" departSpeed="0.38" departDelay="0.79" arrival="166.00" arrivalLane="N_out_1" arrivalPos="189.60" arrivalSpeed="13.49" duration="37.00" routeLength="345.68" waitingTime="3.00" waitingCount="1" stopTime="0.00" timeLoss="10.71" rerouteNo="0" devices="vehroute_flow_9_increasing_0_E_straight.2 tripinfo_flow_9_increasing_0_E_straight.2" vType="moto" speedFactor="0.99" vaporized=""/>
    <tripinfo id="flow_13_increasing_0_W_straight.2" depart="135.00" departLane="W_in_1" departPos="59.51" departSpeed="13.32" departDelay="0.32" arrival="167.00" arrivalLane="E_out_0" arrivalPos="189.60" arrivalSpeed="13.39" duration="32.00" routeLength="340.49" waitingTime="0.00" waitingCount="0" stopTime="0.00" timeLoss="6.06" rerouteNo="0" devices="vehroute_flow_13_increasing_0_W_straight.2 tripinfo_flow_13_increasing_0_W_straight.2" vType="truck" speedFactor="0.97" vaporized=""/>
    <tripinfo id="flow_5_increasing_0_S_straight.2" depart="133.00" departLane="S_in_1" departPos="12.70" departSpeed="12.41" departDelay="0.33" arrival="180.00" arrivalLane="N_out_0" arrivalPos="189.60" arrivalSpeed="13.18" duration="47.00" routeLength="387.30" waitingTime="10.00" waitingCount="1" stopTime="0.00" timeLoss="17.39" rerouteNo="0" devices="vehroute_flow_5_increasing_0_S_straight.2 tripinfo_flow_5_increasing_0_S_straight.2" vType="moto" speedFactor="0.96" vaporized=""/>
    <tripinfo id="flow_1_increasing_0_N_straight.2" depart="140.00" departLane="N_in_1" departPos="107.53" departSpeed="1.11" departDelay="0.38" arrival="181.00" arrivalLane="S_out_0" arrivalPos="189.60" arrivalSpeed="12.17" duration="41.00" routeLength="292.47" waitingTime="9.00" waitingCount="1" stopTime="0.00" timeLoss="17.63" rerouteNo="0" devices="vehroute_flow_1_increasing_0_N_straight.2 tripinfo_flow_1_increasing_0_N_straight.2" vType="moto" speedFactor="0.93" vaporized=""/>
    <tripinfo id="flow_14_increasing_0_W_left.1" depart="166.00" departLane="E_in_1" departPos="110.92" departSpeed="11.99" departDelay="0.16" arrival="190.00" arrivalLane="N_out_0" arrivalPos="189.60" arrivalSpeed="14.12" duration="24.00" routeLength="277.31" waitingTime="0.00" waitingCount="0" stopTime="0.00" timeLoss="3.99" rerouteNo="0" devices="vehroute_flow_14_increasing_0_W_left.1 tripinfo_flow_14_increasing_0_W_left.1" vType="moto" speedFactor="1.05" vaporized=""/>
    <tripinfo id="flow_15_increasing_0_W_right.1" depart="164.00" departLane="W_in_1" departPos="128.68" departSpeed="3.06" departDelay="0.60" arrival="191.00" arrivalLane="S_out_0" arrivalPos="189.60" arrivalSpeed="13.68" duration="27.00" routeLength="259.55" waitingTime="0.00" waitingCount="0" stopTime="0.00" timeLoss="7.69" rerouteNo="0" devices="vehroute_flow_15_increasing_0_W_right.1 tripinfo_flow_15_increasing_0_W_right.1" vType="moto" speedFactor="1.04" vaporized=""/>
    <tripinfo id="flow_2_increasing_0_N_left.1" depart="163.00" departLane="W_in_0" departPos="8.88" departSpeed="2.82" departDelay="0.40" arrival="194.00" arrivalLane="N_out_1" arrivalPos="189.60" arrivalSpeed="14.48" duration="31.00" routeLength="389.67" waitingTime="0.00" waitingCount="0" stopTime="0.00" timeLoss="4.61" rerouteNo="0" devices="vehroute_flow_2_increasing_0_N_left.1 tripinfo_flow_2_increasing_0_N_left.1" vType="moto" speedFactor="1.12" vaporized=""/>
    <tripinfo id="flow_10_increasing_0_E_left.1" depart="170.00" departLane="E_in_1" departPos="185.21" departSpeed="3.91" departDelay="0.80" arrival="197.00" arrivalLane="S_out_0" arrivalPos="189.60" arrivalSpeed="10.64" duration="27.00" routeLength="213.34" waitingTime="2.00" waitingCount="1" stopTime="0.00" timeLoss="5.50" rerouteNo="0" devices="vehroute_flow_10_increasing_0_E_left.1 tripinfo_flow_10_increasing_0_E_left.1" vType="car" speedFactor="0.77" vaporized=""/>
    <tripinfo id="flow_6_increasing_0_S_left.1" depart="166.00" departLane="S_in_0" departPos="73.90" departSpeed="6.96" departDelay="0.16" arrival="204.00" arrivalLane="W_out_1" arrivalPos="189.60" arrivalSpeed="14.96" duration="38.00" routeLength="324.65" waitingTime="6.00" waitingCount="1" stopTime="0.00" timeLoss="14.96" rerouteNo="0" devices="vehroute_flow_6_increasing_0_S_left.1 tripinfo_flow_6_increasing_0_S_left.1" vType="moto" speedFactor="1.08" vaporized=""/>
    <tripinfo id="flow_3_increasing_0_N_right.1" depart="174.00" departLane="N_in_1" departPos="175.36" departSpeed="7.25" departDelay="0.39" arrival="213.00" arrivalLane="W_out_0" arrivalPos="189.60" arrivalSpeed="12.47" duration="39.00" routeLength="212.87" waitingTime="9.00" waitingCount="1" stopTime="0.00" timeLoss="21.11" rerouteNo="0" devices="vehroute_flow_3_increasing_0_N_right.1 tripinfo_flow_3_increasing_0_N_right.1" vType="container" speedFactor="0.91" vaporized=""/>
    <tripinfo id="flow_7_increasing_0_S_right.1" depart="163.00" departLane="S_in_1" departPos="66.71" departSpeed="7.87" departDelay="0.40" arrival="215.00" arrivalLane="E_out_0" arrivalPos="189.60" arrivalSpeed="10.75" duration="52.00" routeLength="321.52" waitingTime="9.00" waitingCount="1" stopTime="0.00" timeLoss="20.72" rerouteNo="0" devices="vehroute_flow_7_increasing_0_S_right.1 tripinfo_flow_7_increasing_0_S_right.1" vType="container" speedFactor="0.78" vaporized=""/>
    <tripinfo id="flow_11_increasing_0_E_right.1" depart="170.00" departLane="W_in_0" departPos="19.85" departSpeed="3.71" departDelay="0.80" arrival="220.00" arrivalLane="W_out_1" arrivalPos="189.60" arrivalSpeed="11.16" duration="50.00" routeLength="364.02" waitingTime="11.00" waitingCount="1" stopTime="0.00" timeLoss="18.34" rerouteNo="0" devices="vehroute_flow_11_increasing_0_E_right.1 tripinfo_flow_11_increasing_0_E_right.1" vType="moto" speedFactor="0.88" vaporized=""/>
    <tripinfo id="flow_9_increasing_0_E_straight.3" depart="193.00" departLane="W_in_0" departPos="134.76" departSpeed="5.03" departDelay="0.69" arrival="223.00" arrivalLane="N_out_1" arrivalPos="189.60" arrivalSpeed="11.30" duration="30.00" routeLength="263.79" waitingTime="0.00" waitingCount="0" stopTime="0.00" timeLoss="6.87" rerouteNo="0" devices="vehroute_flow_9_increasing_0_E_straight.3 tripinfo_flow_9_increasing_0_E_straight.3" vType="truck" speedFactor="0.85" vaporized=""/>
    <tripinfo id="flow_5_increasing_0_S_straight.3" depart="200.00" departLane="S_in_1" departPos="108.76" departSpeed="13.07" departDelay="1.00" arrival="231.00" arrivalLane="N_out_0" arrivalPos="189.60" arrivalSpeed="14.35" duration="31.00" routeLength="291.24" waitingTime="4.00" waitingCount="1" stopTime="0.00" timeLoss="10.80" rerouteNo="0" devices="vehroute_flow_5_increasing_0_S_straight.3 tripinfo_flow_5_increasing_0_S_straight.3" vType="moto" speedFactor="1.08" vaporized=""/>
    <tripinfo id="flow_1_increasing_0_N_straight.3" depart="210.00" departLane="N_in_0" departPos="19.25" departSpeed="10.28" departDelay="0.58" arrival="238.00" arrivalLane="S_out_0" arrivalPos="189.60" arrivalSpeed="14.51" duration="28.00" routeLength="380.75" waitingTime="0.00" waitingCount="0" stopTime="0.00" timeLoss="1.30" rerouteNo="0" devices="vehroute_flow_1_increasing_0_N_straight.3 tripinfo_flow_1_increasing_0_N_straight.3" vType="moto" speedFactor="1.06" vaporized=""/>
    <tripinfo id="flow_13_increasing_0_W_straight.3" depart="203.00" departLane="W_in_1" departPos="77.94" departSpeed="4.74" departDelay="0.98" arrival="242.00" arrivalLane="E_out_0" arrivalPos="189.60" arrivalSpeed="15.16" duration="39.00" routeLength="322.06" waitingTime="10.00" waitingCount="1" stopTime="0.00" timeLoss="18.56" rerouteNo="0" devices="vehroute_flow_13_increasing_0_W_straight.3 tripinfo_flow_13_increasing_0_W_straight.3" vType="moto" speedFactor="1.20" vaporized=""/>
    <tripinfo id="flow_9_increasing_0_E_straight.4" depart="257.00" departLane="W_in_0" departPos="148.08" departSpeed="8.76" departDelay="0.59" arrival="280.00" arrivalLane="N_out_1" arrivalPos="189.60" arrivalSpeed="13.09" duration="23.00" routeLength="250.47" waitingTime="0.00" waitingCount="0" stopTime="0.00" timeLoss="2.79" rerouteNo="0" devices="vehroute_flow_9_increasing_0_E_straight.4 tripinfo_flow_9_increasing_0_E_straight.4" vType="bus" speedFactor="0.95" vaporized=""/>
    <tripinfo id="flow_13_increasing_0_W_straight.4" depart="270.00" departLane="W_in_0" departPos="167.23" departSpeed="1.71" departDelay="0.64" arrival="302.00" arrivalLane="E_out_0" arrivalPos="189.60" arrivalSpeed="11.84" duration="32.00" routeLength="232.77" waitingTime="0.00" waitingCount="0" stopTime="0.00" timeLoss="12.30" rerouteNo="0" devices="vehroute_flow_13_increasing_0_W_straight.4 tripinfo_flow_13_increasing_0_W_straight.4" vType="truck" speedFactor="0.87" vaporized=""/>
    <tripinfo id="flow_1_increasing_0_N_straight.4" depart="280.00" departLane="N_in_0" departPos="8.08" departSpeed="6.42" departDelay="0.77" arrival="312.00" arrivalLane="S_out_0" arrivalPos="189.60" arrivalSpeed="13.11" duration="32.00" routeLength="391.92" waitingTime="0.00" waitingCount="0" stopTime="0.00" timeLoss="2.02" rerouteNo="0" devices="vehroute_flow_1_increasing_0_N_straight.4 tripinfo_flow_1_increasing_0_N_straight.4" vType="car" speedFactor="0.96" vaporized=""/>
    <tripinfo id="flow_5_increasing_0_S_straight.4" depart="266.00" departLane="S_in_1" departPos="23.57" departSpeed="9.61" departDelay="0.66" arrival="317.00" arrivalLane="N_out_0" arrivalPos="189.60" arrivalSpeed="13.23" duration="51.00" routeLength="376.43" waitingTime="9.00" waitingCount="1" stopTime="0.00" timeLoss="22.88" rerouteNo="0" devices="vehroute_flow_5_increasing_0_S_straight.4 tripinfo_flow_5_increasing_0_S_straight.4" vType="container" speedFactor="0.97" vaporized=""/>
    <tripinfo id="flow_17_increasing_300_N_straight.0" depart="300.00" departLane="N_in_0" departPos="185.47" departSpeed="8.80" departDelay="0.00" arrival="318.00" arrivalLane="S_out_0" arrivalPos="189.60" arrivalSpeed="12.75" duration="18.00" routeLength="214.53" waitingTime="0.00" waitingCount="0" stopTime="0.00" timeLoss="1.04" rerouteNo="0" devices="vehroute_flow_17_increasing_300_N_straight.0 tripinfo_flow_17_increasing_300_N_straight.0" vType="car" speedFactor="0.94" vaporized=""/>
    <tripinfo id="flow_29_increasing_300_W_straight.0" depart="300.00" departLane="W_in_0" departPos="161.41" departSpeed="1.62" departDelay="0.00" arrival="320.00" arrivalLane="E_out_0" arrivalPos="189.60" arrivalSpeed="13.36" duration="20.00" routeLength="238.59" waitingTime="0.00" waitingCount="0" stopTime="0.00" timeLoss="2.78" rerouteNo="0" devices="vehroute_flow_29_increasing_300_W_straight.0 tripinfo_flow_29_increasing_300_W_straight.0" vType="moto" speedFactor="1.02" vaporized=""/>
    <tripinfo id="flow_30_increasing_300_W_left.0" depart="300.00" departLane="W_in_1" departPos="188.98" departSpeed="0.62" departDelay="0.00" arrival="321.00" arrivalLane="N_out_1" arrivalPos="189.60" arrivalSpeed="14.39" duration="21.00" routeLength="209.57" waitingTime="3.00" waitingCount="1" stopTime="0.00" timeLoss="6.39" rerouteNo="0" devices="vehroute_flow_30_increasing_300_W_left.0 tripinfo_flow_30_increasing_300_W_left.0" vType="moto" speedFactor="1.10" vaporized=""/>
    <tripinfo id="flow_31_increasing_300_W_right.0" depart="300.00" departLane="W_in_1" departPos="148.65" departSpeed="12.64" departDelay="0.00" arrival="323.00" arrivalLane="S_out_0" arrivalPos="189.60" arrivalSpeed="12.34" duration="23.00" routeLength="239.58" waitingTime="0.00" waitingCount="0" stopTime="0.00" timeLoss="4.25" rerouteNo="0" devices="vehroute_flow_31_increasing_300_W_right.0 tripinfo_flow_31_increasing_300_W_right.0" vType="moto" speedFactor="0.97" vaporized=""/>
    <tripinfo id="flow_27_increasing_300_E_right.0" depart="300.00" departLane="E_in_1" departPos="124.88" departSpeed="0.01" departDelay="0.00" arrival="324.00" arrivalLane="N_out_0" arrivalPos="189.60" arrivalSpeed="15.26" duration="24.00" routeLength="263.35" waitingTime="0.00" waitingCount="0" stopTime="0.00" timeLoss="5.80" rerouteNo="0" devices="vehroute_flow_27_increasing_300_E_right.0 tripinfo_flow_27_increasing_300_E_right.0" vType="moto" speedFactor="1.10" vaporized=""/>
    <tripinfo id="flow_28_increasing_300_E_uturn.0" depart="300.00" departLane="E_in_1" departPos="172.37" departSpeed="0.15" departDelay="0.00" arrival="325.00" arrivalLane="E_out_1" arrivalPos="189.60" arrivalSpeed="12.36" duration="25.00" routeLength="211.50" waitingTime="0.00" waitingCount="0" stopTime="0.00" timeLoss="5.99" rerouteNo="0" devices="vehroute_flow_28_increasing_300_E_uturn.0 tripinfo_flow_28_increasing_300_E_uturn.0" vType="car" speedFactor="0.90" vaporized=""/>
    <tripinfo id="flow_25_increasing_300_E_straight.0" depart="300.00" departLane="E_in_0" departPos="31.76" departSpeed="13.05" departDelay="0.00" arrival="327.00" arrivalLane="W_out_0" arrivalPos="189.60" arrivalSpeed="14.17" duration="27.00" routeLength="368.24" waitingTime="0.00" waitingCount="0" stopTime="0.00" timeLoss="1.23" rerouteNo="0" devices="vehroute_flow_25_increasing_300_E_straight.0 tripinfo_flow_25_increasing_300_E_straight.0" vType="moto" speedFactor="1.04" vaporized=""/>
    <tripinfo id="flow_26_increasing_300_E_left.0" depart="300.00" departLane="E_in_1" departPos="89.17" departSpeed="10.00" departDelay="0.00" arrival="327.00" arrivalLane="W_out_1" arrivalPos="189.60" arrivalSpeed="12.39" duration="27.00" routeLength="310.83" waitingTime="0.00" waitingCount="0" stopTime="0.00" timeLoss="1.52" rerouteNo="0" devices="vehroute_flow_26_increasing_300_E_left.0 tripinfo_flow_26_increasing_300_E_left.0" vType="moto" speedFactor="0.90" vaporized=""/>
    <tripinfo id="flow_32_increasing_300_W_uturn.0" depart="300.00" departLane="W_in_0" departPos="63.10" departSpeed="11.44" departDelay="0.00" arrival="330.00" arrivalLane="W_out_1" arrivalPos="189.60" arrivalSpeed="12.53" duration="30.00" routeLength="320.77" waitingTime="0.00" waitingCount="0" stopTime="0.00" timeLoss="5.62" rerouteNo="0" devices="vehroute_flow_32_increasing_300_W_uturn.0 tripinfo_flow_32_increasing_300_W_uturn.0" vType="moto" speedFactor="0.98" vaporized=""/>
    <tripinfo id="flow_23_increasing_300_S_right.0" depart="300.00" departLane="S_in_0" departPos="104.14" departSpeed="12.09" departDelay="0.00" arrival="334.00" arrivalLane="E_out_0" arrivalPos="189.60" arrivalSpeed="13.57" duration="34.00" routeLength="284.09" waitingTime="6.00" waitingCount="1" stopTime="0.00" timeLoss="13.72" rerouteNo="0" devices="vehroute_flow_23_increasing_300_S_right.0 tripinfo_flow_23_increasing_300_S_right.0" vType="moto" speedFactor="1.07" vaporized=""/>
    <tripinfo id="flow_24_increasing_300_S_uturn.0" depart="300.00" departLane="S_in_1" departPos="168.21" departSpeed="11.63" departDelay="0.00" arrival="334.00" arrivalLane="S_out_1" arrivalPos="189.60" arrivalSpeed="15.83" duration="34.00" routeLength="215.66" waitingTime="11.00" waitingCount="1" stopTime="0.00" timeLoss="19.03" rerouteNo="0" devices="vehroute_flow_24_increasing_300_S_uturn.0 tripinfo_flow_24_increasing_300_S_uturn.0" vType="moto" speedFactor="1.14" vaporized=""/>
    <tripinfo id="flow_21_increasing_300_S_straight.0" depart="300.00" departLane="S_in_1" departPos="108.70" departSpeed="8.47" departDelay="0.00" arrival="336.00" arrivalLane="N_out_0" arrivalPos="189.60" arrivalSpeed="13.33" duration="36.00" routeLength="291.30" waitingTime="4.00" waitingCount="2" stopTime="0.00" timeLoss="15.13" rerouteNo="0" devices="vehroute_flow_21_increasing_300_S_straight.0 tripinfo_flow_21_increasing_300_S_straight.0" vType="moto" speedFactor="1.03" vaporized=""/>
    <tripinfo id="flow_19_increasing_300_N_right.0" depart="300.00" departLane="N_in_0" departPos="81.69" departSpeed="8.43" departDelay="0.00" arrival="337.00" arrivalLane="W_out_0" arrivalPos="189.60" arrivalSpeed="11.42" duration="37.00" routeLength="306.54" waitingTime="4.00" waitingCount="1" stopTime="0.00" timeLoss="11.33" rerouteNo="0" devices="vehroute_flow_19_increasing_300_N_right.0 tripinfo_flow_19_increasing_300_N_right.0" vType="car" speedFactor="0.91" vaporized=""/>
    <tripinfo id="flow_22_increasing_300_S_left.0" depart="300.00" departLane="S_in_0" departPos="121.56" departSpeed="10.88" departDelay="0.00" arrival="338.00" arrivalLane="W_out_1" arrivalPos="189.60" arrivalSpeed="11.67" duration="38.00" routeLength="276.99" waitingTime="8.00" waitingCount="1" stopTime="0.00" timeLoss="15.31" rerouteNo="0" devices="vehroute_flow_22_increasing_300_S_left.0 tripinfo_flow_22_increasing_300_S_left.0" vType="moto" speedFactor="0.91" vaporized=""/>
    <tripinfo id="flow_18_increasing_300_N_left.0" depart="300.00" departLane="N_in_1" departPos="171.48" departSpeed="1.99" departDelay="0.00" arrival="341.00" arrivalLane="E_out_1" arrivalPos="189.60" arrivalSpeed="12.71" duration="41.00" routeLength="227.07" waitingTime="13.00" waitingCount="2" stopTime="0.00" timeLoss="22.23" rerouteNo="0" devices="vehroute_flow_18_increasing_300_N_left.0 tripinfo_flow_18_increasing_300_N_left.0" vType="moto" speedFactor="0.93" vaporized=""/>
    <tripinfo id="flow_20_increasing_300_N_uturn.0" depart="300.00" departLane="N_in_0" departPos="71.94" departSpeed="3.41" departDelay="0.00" arrival="343.00" arrivalLane="N_out_1" arrivalPos="189.60" arrivalSpeed="11.19" duration="43.00" routeLength="311.93" waitingTime="4.00" waitingCount="2" stopTime="0.00" timeLoss="15.56" rerouteNo="0" devices="vehroute_flow_20_increasing_300_N_uturn.0 tripinfo_flow_20_increasing_300_N_uturn.0" vType="car" speedFactor="0.88" vaporized=""/>
    <tripinfo id="flow_25_increasing_300_E_straight.1" depart="347.00" departLane="E_in_1" departPos="84.66" departSpeed="2.15" departDelay="0.85" arrival="373.00" arrivalLane="W_out_0" arrivalPos="189.60" arrivalSpeed="12.90" duration="26.00" routeLength="315.34" waitingTime="0.00" waitingCount="0" stopTime="0.00" timeLoss="3.06" rerouteNo="0" devices="vehroute_flow_25_increasing_300_E_straight.1 tripinfo_flow_25_increasing_300_E_straight.1" vType="moto" speedFactor="1.01" vaporized=""/>
    <tripinfo id="flow_29_increasing_300_W_straight.1" depart="350.00" departLane="W_in_1" departPos="29.88" departSpeed="8.92" departDelay="0.26" arrival="386.00" arrivalLane="E_out_0" arrivalPos="189.60" arrivalSpeed="10.36" duration="36.00" routeLength="370.12" waitingTime="0.00" waitingCount="0" stopTime="0.00" timeLoss="2.37" rerouteNo="0" devices="vehroute_flow_29_increasing_300_W_straight.1 tripinfo_flow_29_increasing_300_W_straight.1" vType="moto" speedFactor="0.80" vaporized=""/>
    <tripinfo id="flow_17_increasing_300_N_straight.1" depart="351.00" departLane="N_in_0" departPos="149.69" departSpeed="1.91" departDelay="0.74" arrival="387.00" arrivalLane="S_out_0" arrivalPos="189.60" arrivalSpeed="14.70" duration="36.00" routeLength="250.31" waitingTime="10.00" waitingCount="1" stopTime="0.00" timeLoss="18.25" rerouteNo="0" devices="vehroute_flow_17_increasing_300_N_straight.1 tripinfo_flow_17_increasing_300_N_straight.1" vType="moto" speedFactor="1.06" vaporized=""/>