<?xml version="1.0" encoding="UTF-8"?>

<!-- generated on 2025-12-09 21:39:09 by Eclipse SUMO sumo Version 1.18.0
<configuration xmlns:xsi="http://www.w3.org/2001/XMLSchema-instance" xsi:noNamespaceSchemaLocation="http://sumo.dlr.de/xsd/sumoConfiguration.xsd">

    <input>
        <net-file value="/workspace/nets/120p4k/net.net.xml"/>
        <route-files value="/workspace/nets/120p4k/route_temp_334_123834910177792_74393419.rou.xml"/>
    </input>

    <output>
        <summary-output value="results/summary_ep_7.xml"/>
        <tripinfo-output value="results/tripinfo_ep_7.xml"/>
        <vehroute-output value="results/vehroute_ep_7.xml"/>
    </output>

    <time>
        <begin value="0"/>
    </time>

    <report>
        <verbose value="true"/>
        <no-step-log value="true"/>
    </report>

    <traci_server>
        <remote-port value="48717"/>
    </traci_server>

    <gui_only>
        <gui-settings-file value="/workspace/nets/120p4k/gui-settings.xml"/>
        <quit-on-end value="true"/>
    </gui_only>

</configuration>
-->

<tripinfos xmlns:xsi="http://www.w3.org/2001/XMLSchema-instance" xsi:noNamespaceSchemaLocation="http://sumo.dlr.de/xsd/tripinfo_file.xsd">
    <tripinfo id="flow_3_increasing_0_N_right.0" depart="0.00" departLane="N_in_0" departPos="103.38" departSpeed="3.81" departDelay="0.00" arrival="24.00" arrivalLane="W_out_0" arrivalPos="189.60" arrivalSpeed="14.24" duration="24.00" routeLength="284.85" waitingTime="0.00" waitingCount="0" stopTime="0.00" timeLoss="4.51" rerouteNo="0" devices="vehroute_flow_3_increasing_0_N_right.0 tripinfo_flow_3_increasing_0_N_right.0" vType="moto" speedFactor="1.11" vaporized=""/>
    <tripinfo id="flow_6_increasing_0_S_left.0" depart="0.00" departLane="S_in_1" departPos="166.01" departSpeed="0.74" departDelay="0.00" arrival="25.00" arrivalLane="W_out_1" arrivalPos="189.60" arrivalSpeed="11.57" duration="25.00" routeLength="232.54" waitingTime="0.00" waitingCount="0" stopTime="0.00" timeLoss="4.43" rerouteNo="0" devices="vehroute_flow_6_increasing_0_S_left.0 tripinfo_flow_6_increasing_0_S_left.0" vType="moto" speedFactor="0.88" vaporized=""/>
    <tripinfo id="flow_8_increasing_0_S_uturn.0" depart="0.00" departLane="S_in_0" departPos="120.11" departSpeed="4.48" departDelay="0.00" arrival="25.00" arrivalLane="S_out_1" arrivalPos="189.60" arrivalSpeed="13.35" duration="25.00" routeLength="263.76" waitingTime="0.00" waitingCount="0" stopTime="0.00" timeLoss="5.19" rerouteNo="0" devices="vehroute_flow_8_increasing_0_S_uturn.0 tripinfo_flow_8_increasing_0_S_uturn.0" vType="moto" speedFactor="1.05" vaporized=""/>
    <tripinfo id="flow_4_increasing_0_N_uturn.0" depart="0.00" departLane="N_in_1" departPos="127.60" departSpeed="0.08" departDelay="0.00" arrival="27.00" arrivalLane="N_out_1" arrivalPos="189.60" arrivalSpeed="11.54" duration="27.00" routeLength="256.27" waitingTime="0.00" waitingCount="0" stopTime="0.00" timeLoss="6.04" rerouteNo="0" devices="vehroute_flow_4_increasing_0_N_uturn.0 tripinfo_flow_4_increasing_0_N_uturn.0" vType="moto" speedFactor="0.91" vaporized=""/>
    <tripinfo id="flow_5_increasing_0_S_straight.0" depart="0.00" departLane="W_in_1" departPos="107.37" departSpeed="7.21" departDelay="0.00" arrival="35.00" arrivalLane="E_out_1" arrivalPos="189.60" arrivalSpeed="15.69" duration="35.00" routeLength="292.63" waitingTime="6.00" waitingCount="1" stopTime="0.00" timeLoss="15.96" rerouteNo="0" devices="vehroute_flow_5_increasing_0_S_straight.0 tripinfo_flow_5_increasing_0_S_straight.0" vType="moto" speedFactor="1.15" vaporized=""/>
    <tripinfo id="flow_7_increasing_0_S_right.0" depart="0.00" departLane="S_in_0" departPos="8.76" departSpeed="8.47" departDelay="0.00" arrival="36.00" arrivalLane="E_out_0" arrivalPos="189.60" arrivalSpeed="11.73" duration="36.00" routeLength="379.47" waitingTime="0.00" waitingCount="0" stopTime="0.00" timeLoss="3.83" rerouteNo="0" devices="vehroute_flow_7_increasing_0_S_right.0 tripinfo_flow_7_increasing_0_S_right.0" vType="bus" speedFactor="0.89" vaporized=""/>
    <tripinfo id="flow_9_increasing_0_E_straight.0" depart="0.00" departLane="E_in_0" departPos="168.29" departSpeed="10.73" departDelay="0.00" arrival="37.00" arrivalLane="W_out_0" arrivalPos="189.60" arrivalSpeed="12.33" duration="37.00" routeLength="231.71" waitingTime="13.00" waitingCount="1" stopTime="0.00" timeLoss="18.71" rerouteNo="0" devices="vehroute_flow_9_increasing_0_E_straight.0 tripinfo_flow_9_increasing_0_E_straight.0" vType="car" speedFactor="0.94" vaporized=""/>
    <tripinfo id="flow_15_increasing_0_W_right.0" depart="0.00" departLane="E_in_0" departPos="108.38" departSpeed="2.63" departDelay="0.00" arrival="39.00" arrivalLane="W_out_1" arrivalPos="189.60" arrivalSpeed="10.57" duration="39.00" routeLength="291.62" waitingTime="6.00" waitingCount="1" stopTime="0.00" timeLoss="13.56" rerouteNo="0" devices="vehroute_flow_15_increasing_0_W_right.0 tripinfo_flow_15_increasing_0_W_right.0" vType="moto" speedFactor="0.85" vaporized=""/>
    <tripinfo id="flow_14_increasing_0_W_left.0" depart="0.00" departLane="W_in_1" departPos="182.88" departSpeed="5.61" departDelay="0.00" arrival="40.00" arrivalLane="N_out_1" arrivalPos="189.60" arrivalSpeed="13.70" duration="40.00" routeLength="215.67" waitingTime="16.00" waitingCount="2" stopTime="0.00" timeLoss="23.10" rerouteNo="0" devices="vehroute_flow_14_increasing_0_W_left.0 tripinfo_flow_14_increasing_0_W_left.0" vType="moto" speedFactor="1.01" vaporized=""/>
    <tripinfo id="flow_16_increasing_0_W_uturn.0" depart="0.00" departLane="W_in_0" departPos="126.68" departSpeed="11.71" departDelay="0.00" arrival="40.00" arrivalLane="W_out_1" arrivalPos="189.60" arrivalSpeed="13.14" duration="40.00" routeLength="257.19" waitingTime="13.00" waitingCount="2" stopTime="0.00" timeLoss="20.85" rerouteNo="0" devices="vehroute_flow_16_increasing_0_W_uturn.0 tripinfo_flow_16_increasing_0_W_uturn.0" vType="moto" speedFactor="1.04" vaporized=""/>
    <tripinfo id="flow_11_increasing_0_E_right.0" depart="0.00" departLane="E_in_1" departPos="144.95" departSpeed="4.02" departDelay="0.00" arrival="41.00" arrivalLane="N_out_0" arrivalPos="189.60" arrivalSpeed="12.61" duration="41.00" routeLength="243.28" waitingTime="11.00" waitingCount="1" stopTime="0.00" timeLoss="21.60" rerouteNo="0" devices="vehroute_flow_11_increasing_0_E_right.0 tripinfo_flow_11_increasing_0_E_right.0" vType="bus" speedFactor="0.96" vaporized=""/>
    <tripinfo id="flow_13_increasing_0_W_straight.0" depart="0.00" departLane="W_in_0" departPos="24.53" departSpeed="3.97" departDelay="0.00" arrival="42.00" arrivalLane="E_out_0" arrivalPos="189.60" arrivalSpeed="11.31" duration="42.00" routeLength="375.47" waitingTime="0.00" waitingCount="0" stopTime="0.00" timeLoss="10.41" rerouteNo="0" devices="vehroute_flow_13_increasing_0_W_straight.0 tripinfo_flow_13_increasing_0_W_straight.0" vType="bus" speedFactor="0.86" vaporized=""/>
    <tripinfo id="flow_10_increasing_0_E_left.0" depart="0.00" departLane="E_in_0" departPos="44.88" departSpeed="8.19" departDelay="0.00" arrival="43.00" arrivalLane="S_out_1" arrivalPos="189.60" arrivalSpeed="14.14" duration="43.00" routeLength="353.67" waitingTime="8.00" waitingCount="2" stopTime="0.00" timeLoss="18.26" rerouteNo="0" devices="vehroute_flow_10_increasing_0_E_left.0 tripinfo_flow_10_increasing_0_E_left.0" vType="car" speedFactor="1.08" vaporized=""/>
    <tripinfo id="flow_12_increasing_0_E_uturn.0" depart="0.00" departLane="E_in_0" departPos="5.65" departSpeed="13.76" departDelay="0.00" arrival="44.00" arrivalLane="E_out_1" arrivalPos="189.60" arrivalSpeed="13.50" duration="44.00" routeLength="378.22" waitingTime="6.00" waitingCount="2" stopTime="0.00" timeLoss="16.74" rerouteNo="0" devices="vehroute_flow_12_increasing_0_E_uturn.0 tripinfo_flow_12_increasing_0_E_uturn.0" vType="moto" speedFactor="1.03" vaporized=""/>
    <tripinfo id="flow_1_increasing_0_N_straight.0" depart="0.00" departLane="N_in_0" departPos="8.62" departSpeed="8.51" departDelay="0.00" arrival="53.00" arrivalLane="N_out_0" arrivalPos="189.60" arrivalSpeed="11.72" duration="53.00" routeLength="375.25" waitingTime="12.00" waitingCount="1" stopTime="0.00" timeLoss="20.49" rerouteNo="0" devices="vehroute_flow_1_increasing_0_N_straight.0 tripinfo_flow_1_increasing_0_N_straight.0" vType="truck" speedFactor="0.86" vaporized=""/>
    <tripinfo id="flow_2_increasing_0_N_left.0" depart="0.00" departLane="N_in_1" departPos="8.27" departSpeed="8.33" departDelay="0.00" arrival="53.00" arrivalLane="E_out_1" arrivalPos="189.60" arrivalSpeed="13.57" duration="53.00" routeLength="390.28" waitingTime="11.00" waitingCount="1" stopTime="0.00" timeLoss="24.19" rerouteNo="0" devices="vehroute_flow_2_increasing_0_N_left.0 tripinfo_flow_2_increasing_0_N_left.0" vType="moto" speedFactor="1.02" vaporized=""/>
    <tripinfo id="flow_9_increasing_0_E_straight.1" depart="65.00" departLane="E_in_0" departPos="131.13" departSpeed="9.54" departDelay="0.90" arrival="93.00" arrivalLane="W_out_0" arrivalPos="189.60" arrivalSpeed="14.80" duration="28.00" routeLength="268.87" waitingTime="4.00" waitingCount="1" stopTime="0.00" timeLoss="10.33" rerouteNo="0" devices="vehroute_flow_9_increasing_0_E_straight.1 tripinfo_flow_9_increasing_0_E_straight.1" vType="moto" speedFactor="1.16" vaporized=""/>
    <tripinfo id="flow_5_increasing_0_S_straight.1" depart="67.00" departLane="W_in_1" departPos="58.36" departSpeed="11.64" departDelay="0.67" arrival="97.00" arrivalLane="E_out_0" arrivalPos="189.60" arrivalSpeed="12.04" duration="30.00" routeLength="341.64" waitingTime="0.00" waitingCount="0" stopTime="0.00" timeLoss="1.79" rerouteNo="0" devices="vehroute_flow_5_increasing_0_S_straight.1 tripinfo_flow_5_increasing_0_S_straight.1" vType="moto" speedFactor="0.87" vaporized=""/>
    <tripinfo id="flow_13_increasing_0_W_straight.1" depart="68.00" departLane="W_in_1" departPos="31.93" departSpeed="9.28" departDelay="0.66" arrival="101.00" arrivalLane="E_out_0" arrivalPos="189.60" arrivalSpeed="15.29" duration="33.00" routeLength="368.07" waitingTime="2.00" waitingCount="1" stopTime="0.00" timeLoss="9.17" rerouteNo="0" devices="vehroute_flow_13_increasing_0_W_straight.1 tripinfo_flow_13_increasing_0_W_straight.1" vType="moto" speedFactor="1.19" vaporized=""/>
    <tripinfo id="flow_1_increasing_0_N_straight.1" depart="70.00" departLane="N_in_1" departPos="121.65" departSpeed="2.92" departDelay="0.19" arrival="144.00" arrivalLane="N_out_1" arrivalPos="189.60" arrivalSpeed="15.93" duration="74.00" routeLength="262.22" waitingTime="48.00" waitingCount="1" stopTime="0.00" timeLoss="57.07" rerouteNo="0" devices="vehroute_flow_1_increasing_0_N_straight.1 tripinfo_flow_1_increasing_0_N_straight.1" vType="moto" speedFactor="1.15" vaporized=""/>
    <tripinfo id="flow_1_increasing_0_N_straight.2" depart="140.00" departLane="N_in_1" departPos="107.53" departSpeed="1.11" departDelay="0.38" arrival="169.00" arrivalLane="N_out_1" arrivalPos="189.60" arrivalSpeed="12.63" duration="29.00" routeLength="276.34" waitingTime="0.00" waitingCount="0" stopTime="0.00" timeLoss="6.70" rerouteNo="0" devices="vehroute_flow_1_increasing_0_N_straight.2 tripinfo_flow_1_increasing_0_N_straight.2" vType="moto" speedFactor="0.93" vaporized=""/>
    <tripinfo id="flow_6_increasing_0_S_left.1" depart="166.00" departLane="S_in_0" departPos="73.90" departSpeed="6.63" departDelay="0.16" arrival="193.00" arrivalLane="W_out_1" arrivalPos="189.60" arrivalSpeed="14.78" duration="27.00" routeLength="324.65" waitingTime="0.00" waitingCount="0" stopTime="0.00" timeLoss="4.35" rerouteNo="0" devices="vehroute_flow_6_increasing_0_S_left.1 tripinfo_flow_6_increasing_0_S_left.1" vType="moto" speedFactor="1.08" vaporized=""/>
    <tripinfo id="flow_2_increasing_0_N_left.1" depart="163.00" departLane="N_in_0" departPos="8.88" departSpeed="2.82" departDelay="0.40" arrival="194.00" arrivalLane="E_out_1" arrivalPos="189.60" arrivalSpeed="14.51" duration="31.00" routeLength="389.67" waitingTime="0.00" waitingCount="0" stopTime="0.00" timeLoss="4.72" rerouteNo="0" devices="vehroute_flow_2_increasing_0_N_left.1 tripinfo_flow_2_increasing_0_N_left.1" vType="moto" speedFactor="1.12" vaporized=""/>
    <tripinfo id="flow_7_increasing_0_S_right.1" depart="163.00" departLane="S_in_1" departPos="66.71" departSpeed="7.87" departDelay="0.40" arrival="199.00" arrivalLane="E_out_0" arrivalPos="189.60" arrivalSpeed="10.48" duration="36.00" routeLength="321.52" waitingTime="0.00" waitingCount="0" stopTime="0.00" timeLoss="5.50" rerouteNo="0" devices="vehroute_flow_7_increasing_0_S_right.1 tripinfo_flow_7_increasing_0_S_right.1" vType="container" speedFactor="0.78" vaporized=""/>
    <tripinfo id="flow_9_increasing_0_E_straight.2" depart="129.00" departLane="E_in_1" departPos="52.87" departSpeed="0.38" departDelay="0.79" arrival="200.00" arrivalLane="W_out_0" arrivalPos="189.60" arrivalSpeed="12.77" duration="71.00" routeLength="347.13" waitingTime="37.00" waitingCount="1" stopTime="0.00" timeLoss="45.40" rerouteNo="0" devices="vehroute_flow_9_increasing_0_E_straight.2 tripinfo_flow_9_increasing_0_E_straight.2" vType="moto" speedFactor="0.99" vaporized=""/>
    <tripinfo id="flow_15_increasing_0_W_right.1" depart="164.00" departLane="E_in_1" departPos="128.68" departSpeed="3.06" departDelay="0.60" arrival="200.00" arrivalLane="W_out_1" arrivalPos="189.60" arrivalSpeed="13.97" duration="36.00" routeLength="271.32" waitingTime="9.00" waitingCount="1" stopTime="0.00" timeLoss="16.59" rerouteNo="0" devices="vehroute_flow_15_increasing_0_W_right.1 tripinfo_flow_15_increasing_0_W_right.1" vType="moto" speedFactor="1.04" vaporized=""/>
    <tripinfo id="flow_5_increasing_0_S_straight.2" depart="133.00" departLane="W_in_1" departPos="12.70" departSpeed="12.41" departDelay="0.33" arrival="201.00" arrivalLane="E_out_0" arrivalPos="189.60" arrivalSpeed="12.62" duration="68.00" routeLength="387.30" waitingTime="29.00" waitingCount="1" stopTime="0.00" timeLoss="38.87" rerouteNo="0" devices="vehroute_flow_5_increasing_0_S_straight.2 tripinfo_flow_5_increasing_0_S_straight.2" vType="moto" speedFactor="0.96" vaporized=""/>
    <tripinfo id="flow_14_increasing_0_W_left.1" depart="166.00" departLane="W_in_1" departPos="110.92" departSpeed="11.99" departDelay="0.16" arrival="202.00" arrivalLane="N_out_1" arrivalPos="189.60" arrivalSpeed="13.76" duration="36.00" routeLength="287.63" waitingTime="9.00" waitingCount="1" stopTime="0.00" timeLoss="15.71" rerouteNo="0" devices="vehroute_flow_14_increasing_0_W_left.1 tripinfo_flow_14_increasing_0_W_left.1" vType="moto" speedFactor="1.05" vaporized=""/>
    <tripinfo id="flow_11_increasing_0_E_right.1" depart="170.00" departLane="E_in_0" departPos="166.00" departSpeed="1.28" departDelay="0.80" arrival="203.00" arrivalLane="N_out_0" arrivalPos="189.60" arrivalSpeed="11.63" duration="33.00" routeLength="222.23" waitingTime="6.00" waitingCount="1" stopTime="0.00" timeLoss="13.28" rerouteNo="0" devices="vehroute_flow_11_increasing_0_E_right.1 tripinfo_flow_11_increasing_0_E_right.1" vType="moto" speedFactor="0.88" vaporized=""/>
    <tripinfo id="flow_13_increasing_0_W_straight.2" depart="135.00" departLane="W_in_1" departPos="59.51" departSpeed="13.32" departDelay="0.32" arrival="205.00" arrivalLane="E_out_0" arrivalPos="189.60" arrivalSpeed="12.90" duration="70.00" routeLength="340.49" waitingTime="33.00" waitingCount="1" stopTime="0.00" timeLoss="43.97" rerouteNo="0" devices="vehroute_flow_13_increasing_0_W_straight.2 tripinfo_flow_13_increasing_0_W_straight.2" vType="truck" speedFactor="0.97" vaporized=""/>
    <tripinfo id="flow_10_increasing_0_E_left.1" depart="170.00" departLane="E_in_1" departPos="4.52" departSpeed="3.91" departDelay="0.80" arrival="212.00" arrivalLane="S_out_0" arrivalPos="189.60" arrivalSpeed="9.55" duration="42.00" routeLength="394.03" waitingTime="0.00" waitingCount="0" stopTime="0.00" timeLoss="4.30" rerouteNo="0" devices="vehroute_flow_10_increasing_0_E_left.1 tripinfo_flow_10_increasing_0_E_left.1" vType="car" speedFactor="0.77" vaporized=""/>
    <tripinfo id="flow_5_increasing_0_S_straight.3" depart="200.00" departLane="W_in_0" departPos="184.19" departSpeed="8.58" departDelay="1.00" arrival="216.00" arrivalLane="E_out_0" arrivalPos="189.60" arrivalSpeed="14.38" duration="16.00" routeLength="215.81" waitingTime="0.00" waitingCount="0" stopTime="0.00" timeLoss="1.16" rerouteNo="0" devices="vehroute_flow_5_increasing_0_S_straight.3 tripinfo_flow_5_increasing_0_S_straight.3" vType="moto" speedFactor="1.08" vaporized=""/>
    <tripinfo id="flow_9_increasing_0_E_straight.3" depart="193.00" departLane="E_in_0" departPos="86.42" departSpeed="8.41" departDelay="0.69" arrival="221.00" arrivalLane="W_out_0" arrivalPos="189.60" arrivalSpeed="11.08" duration="28.00" routeLength="313.58" waitingTime="0.00" waitingCount="0" stopTime="0.00" timeLoss="1.23" rerouteNo="0" devices="vehroute_flow_9_increasing_0_E_straight.3 tripinfo_flow_9_increasing_0_E_straight.3" vType="truck" speedFactor="0.85" vaporized=""/>
    <tripinfo id="flow_13_increasing_0_W_straight.3" depart="203.00" departLane="W_in_0" departPos="65.01" departSpeed="6.58" departDelay="0.98" arrival="226.00" arrivalLane="E_out_0" arrivalPos="189.60" arrivalSpeed="15.07" duration="23.00" routeLength="334.99" waitingTime="0.00" waitingCount="0" stopTime="0.00" timeLoss="1.96" rerouteNo="0" devices="vehroute_flow_13_increasing_0_W_straight.3 tripinfo_flow_13_increasing_0_W_straight.3" vType="moto" speedFactor="1.20" vaporized=""/>
    <tripinfo id="flow_1_increasing_0_N_straight.3" depart="210.00" departLane="N_in_1" departPos="88.42" departSpeed="1.49" departDelay="0.58" arrival="251.00" arrivalLane="N_out_1" arrivalPos="189.60" arrivalSpeed="14.15" duration="41.00" routeLength="295.45" waitingTime="12.00" waitingCount="1" stopTime="0.00" timeLoss="20.28" rerouteNo="0" devices="vehroute_flow_1_increasing_0_N_straight.3 tripinfo_flow_1_increasing_0_N_straight.3" vType="moto" speedFactor="1.06" vaporized=""/>
    <tripinfo id="flow_3_increasing_0_N_right.1" depart="174.00" departLane="N_in_0" departPos="93.41" departSpeed="11.76" departDelay="0.39" arrival="261.00" arrivalLane="W_out_0" arrivalPos="189.60" arrivalSpeed="12.41" duration="87.00" routeLength="294.82" waitingTime="50.00" waitingCount="1" stopTime="0.00" timeLoss="62.93" rerouteNo="0" devices="vehroute_flow_3_increasing_0_N_right.1 tripinfo_flow_3_increasing_0_N_right.1" vType="container" speedFactor="0.91" vaporized=""/>
    <tripinfo id="flow_9_increasing_0_E_straight.4" depart="257.00" departLane="E_in_1" departPos="53.32" departSpeed="10.34" departDelay="0.59" arrival="311.00" arrivalLane="W_out_0" arrivalPos="189.60" arrivalSpeed="12.58" duration="54.00" routeLength="346.68" waitingTime="17.00" waitingCount="1" stopTime="0.00" timeLoss="27.57" rerouteNo="0" devices="vehroute_flow_9_increasing_0_E_straight.4 tripinfo_flow_9_increasing_0_E_straight.4" vType="bus" speedFactor="0.95" vaporized=""/>
    <tripinfo id="flow_13_increasing_0_W_straight.4" depart="270.00" departLane="W_in_0" departPos="70.46" departSpeed="10.65" departDelay="0.64" arrival="311.00" arrivalLane="E_out_0" arrivalPos="189.60" arrivalSpeed="11.81" duration="41.00" routeLength="329.54" waitingTime="5.00" waitingCount="1" stopTime="0.00" timeLoss="13.63" rerouteNo="0" devices="vehroute_flow_13_increasing_0_W_straight.4 tripinfo_flow_13_increasing_0_W_straight.4" vType="truck" speedFactor="0.87" vaporized=""/>
    <tripinfo id="flow_5_increasing_0_S_straight.4" depart="266.00" departLane="W_in_0" departPos="135.24" departSpeed="1.68" departDelay="0.66" arrival="314.00" arrivalLane="E_out_0" arrivalPos="189.60" arrivalSpeed="13.06" duration="48.00" routeLength="264.76" waitingTime="9.00" waitingCount="1" stopTime="0.00" timeLoss="27.95" rerouteNo="0" devices="vehroute_flow_5_increasing_0_S_straight.4 tripinfo_flow_5_increasing_0_S_straight.4" vType="container" speedFactor="0.97" vaporized=""/>
    <tripinfo id="flow_27_increasing_300_E_right.0" depart="300.00" departLane="W_in_1" departPos="174.17" departSpeed="10.11" departDelay="0.00" arrival="316.00" arrivalLane="E_out_1" arrivalPos="189.60" arrivalSpeed="14.79" duration="16.00" routeLength="225.83" waitingTime="0.00" waitingCount="0" stopTime="0.00" timeLoss="0.88" rerouteNo="0" devices="vehroute_flow_27_increasing_300_E_right.0 tripinfo_flow_27_increasing_300_E_right.0" vType="moto" speedFactor="1.10" vaporized=""/>
    <tripinfo id="flow_24_increasing_300_S_uturn.0" depart="300.00" departLane="E_in_0" departPos="91.52" departSpeed="14.07" departDelay="0.00" arrival="321.00" arrivalLane="W_out_0" arrivalPos="189.60" arrivalSpeed="15.09" duration="21.00" routeLength="308.48" waitingTime="0.00" waitingCount="0" stopTime="0.00" timeLoss="0.79" rerouteNo="0" devices="vehroute_flow_24_increasing_300_S_uturn.0 tripinfo_flow_24_increasing_300_S_uturn.0" vType="moto" speedFactor="1.14" vaporized=""/>
    <tripinfo id="flow_29_increasing_300_W_straight.0" depart="300.00" departLane="W_in_0" departPos="161.41" departSpeed="1.62" departDelay="0.00" arrival="321.00" arrivalLane="E_out_0" arrivalPos="189.60" arrivalSpeed="13.88" duration="21.00" routeLength="238.59" waitingTime="0.00" waitingCount="0" stopTime="0.00" timeLoss="3.50" rerouteNo="0" devices="vehroute_flow_29_increasing_300_W_straight.0 tripinfo_flow_29_increasing_300_W_straight.0" vType="moto" speedFactor="1.02" vaporized=""/>
    <tripinfo id="flow_28_increasing_300_E_uturn.0" depart="300.00" departLane="E_in_1" departPos="172.37" departSpeed="6.07" departDelay="0.00" arrival="325.00" arrivalLane="E_out_1" arrivalPos="189.60" arrivalSpeed="11.23" duration="25.00" routeLength="211.50" waitingTime="0.00" waitingCount="0" stopTime="0.00" timeLoss="6.64" rerouteNo="0" devices="vehroute_flow_28_increasing_300_E_uturn.0 tripinfo_flow_28_increasing_300_E_uturn.0" vType="car" speedFactor="0.90" vaporized=""/>
    <tripinfo id="flow_30_increasing_300_W_left.0" depart="300.00" departLane="W_in_1" departPos="92.42" departSpeed="6.01" departDelay="0.00" arrival="325.00" arrivalLane="N_out_1" arrivalPos="189.60" arrivalSpeed="15.21" duration="25.00" routeLength="306.13" waitingTime="0.00" waitingCount="0" stopTime="0.00" timeLoss="3.84" rerouteNo="0" devices="vehroute_flow_30_increasing_300_W_left.0 tripinfo_flow_30_increasing_300_W_left.0" vType="moto" speedFactor="1.10" vaporized=""/>
    <tripinfo id="flow_25_increasing_300_E_straight.0" depart="300.00" departLane="E_in_1" departPos="65.57" departSpeed="2.42" departDelay="0.00" arrival="329.00" arrivalLane="W_out_0" arrivalPos="189.60" arrivalSpeed="13.15" duration="29.00" routeLength="334.43" waitingTime="0.00" waitingCount="0" stopTime="0.00" timeLoss="5.85" rerouteNo="0" devices="vehroute_flow_25_increasing_300_E_straight.0 tripinfo_flow_25_increasing_300_E_straight.0" vType="moto" speedFactor="1.04" vaporized=""/>
    <tripinfo id="flow_26_increasing_300_E_left.0" depart="300.00" departLane="E_in_0" departPos="64.25" departSpeed="5.90" departDelay="0.00" arrival="331.00" arrivalLane="S_out_1" arrivalPos="189.60" arrivalSpeed="11.43" duration="31.00" routeLength="334.30" waitingTime="0.00" waitingCount="0" stopTime="0.00" timeLoss="3.16" rerouteNo="0" devices="vehroute_flow_26_increasing_300_E_left.0 tripinfo_flow_26_increasing_300_E_left.0" vType="moto" speedFactor="0.90" vaporized=""/>
    <tripinfo id="flow_32_increasing_300_W_uturn.0" depart="300.00" departLane="W_in_1" departPos="39.34" departSpeed="4.51" departDelay="0.00" arrival="335.00" arrivalLane="W_out_1" arrivalPos="189.60" arrivalSpeed="12.47" duration="35.00" routeLength="344.53" waitingTime="0.00" waitingCount="0" stopTime="0.00" timeLoss="7.44" rerouteNo="0" devices="vehroute_flow_32_increasing_300_W_uturn.0 tripinfo_flow_32_increasing_300_W_uturn.0" vType="moto" speedFactor="0.98" vaporized=""/>
    <tripinfo id="flow_23_increasing_300_S_right.0" depart="300.00" departLane="S_in_1" departPos="2.77" departSpeed="8.14" departDelay="0.00" arrival="358.00" arrivalLane="E_out_0" arrivalPos="189.60" arrivalSpeed="14.18" duration="58.00" routeLength="385.46" waitingTime="25.00" waitingCount="1" stopTime="0.00" timeLoss="30.89" rerouteNo="0" devices="vehroute_flow_23_increasing_300_S_right.0 tripinfo_flow_23_increasing_300_S_right.0" vType="moto" speedFactor="1.07" vaporized=""/>
    <tripinfo id="flow_21_increasing_300_S_straight.0" depart="300.00" departLane="S_in_1" departPos="19.51" departSpeed="8.19" departDelay="0.00" arrival="359.00" arrivalLane="N_out_0" arrivalPos="189.60" arrivalSpeed="13.55" duration="59.00" routeLength="380.49" waitingTime="24.00" waitingCount="1" stopTime="0.00" timeLoss="31.70" rerouteNo="0" devices="vehroute_flow_21_increasing_300_S_straight.0 tripinfo_flow_21_increasing_300_S_straight.0" vType="moto" speedFactor="1.03" vaporized=""/>
    <tripinfo id="flow_17_increasing_300_N_straight.0" depart="300.00" departLane="N_in_1" departPos="160.30" departSpeed="11.60" departDelay="0.00" arrival="360.00" arrivalLane="S_out_0" arrivalPos="189.60" arrivalSpeed="12.97" duration="60.00" routeLength="239.70" waitingTime="33.00" waitingCount="1" stopTime="0.00" timeLoss="41.21" rerouteNo="0" devices="vehroute_flow_17_increasing_300_N_straight.0 tripinfo_flow_17_increasing_300_N_straight.0" vType="car" speedFactor="0.94" vaporized=""/>
    <tripinfo id="flow_1_increasing_0_N_straight.4" depart="280.00" departLane="N_in_1" departPos="74.07" departSpeed="0.57" departDelay="0.77" arrival="362.00" arrivalLane="N_out_1" arrivalPos="189.60" arrivalSpeed="13.11" duration="82.00" routeLength="309.80" waitingTime="46.00" waitingCount="2" stopTime="0.00" timeLoss="57.10" rerouteNo="0" devices="vehroute_flow_1_increasing_0_N_straight.4 tripinfo_flow_1_increasing_0_N_straight.4" vType="car" speedFactor="0.96" vaporized=""/>
    <tripinfo id="flow_19_increasing_300_N_right.0" depart="300.00" departLane="N_in_1" departPos="111.69" departSpeed="5.48" departDelay="0.00" arrival="362.00" arrivalLane="W_out_0" arrivalPos="189.60" arrivalSpeed="12.33" duration="62.00" routeLength="276.54" waitingTime="31.00" waitingCount="1" stopTime="0.00" timeLoss="39.34" rerouteNo="0" devices="vehroute_flow_19_increasing_300_N_right.0 tripinfo_flow_19_increasing_300_N_right.0" vType="car" speedFactor="0.91" vaporized=""/>
    <tripinfo id="flow_22_increasing_300_S_left.0" depart="300.00" departLane="N_in_0" departPos="155.68" departSpeed="8.14" departDelay="0.00" arrival="368.00" arrivalLane="N_out_1" arrivalPos="189.60" arrivalSpeed="11.72" duration="68.00" routeLength="228.19" waitingTime="37.00" waitingCount="2" stopTime="0.00" timeLoss="48.87" rerouteNo="0" devices="vehroute_flow_22_increasing_300_S_left.0 tripinfo_flow_22_increasing_300_S_left.0" vType="moto" speedFactor="0.91" vaporized=""/>
    <tripinfo id="flow_31_increasing_300_W_right.0" depart="300.00" departLane="N_in_0" departPos="87.76" departSpeed="10.58" departDelay="0.00" arrival="368.00" arrivalLane="S_out_0" arrivalPos="189.60" arrivalSpeed="12.69" duration="68.00" routeLength="312.24" waitingTime="33.00" waitingCount="2" stopTime="0.00" timeLoss="44.03" rerouteNo="0" devices="vehroute_flow_31_increasing_300_W_right.0 tripinfo_flow_31_increasing_300_W_right.0" vType="moto" speedFactor="0.97" vaporized=""/>
    <tripinfo id="flow_20_increasing_300_N_uturn.0" depart="300.00" departLane="N_in_1" departPos="129.09" departSpeed="4.66" departDelay="0.00" arrival="371.00" arrivalLane="N_out_1" arrivalPos="189.60" arrivalSpeed="11.32" duration="71.00" routeLength="254.78" waitingTime="34.00" waitingCount="2" stopTime="0.00" timeLoss="49.16" rerouteNo="0" devices="vehroute_flow_20_increasing_300_N_uturn.0 tripinfo_flow_20_increasing_300_N_uturn.0" vType="car" speedFactor="0.88" vaporized=""/>
    <tripinfo id="flow_18_increasing_300_N_left.0" depart="300.00" departLane="N_in_1" departPos="65.33" departSpeed="11.70" departDelay="0.00" arrival="374.00" arrivalLane="E_out_1" arrivalPos="189.60" arrivalSpeed="12.39" duration="74.00" routeLength="333.22" waitingTime="32.00" waitingCount="1" stopTime="0.00" timeLoss="46.96" rerouteNo="0" devices="vehroute_flow_18_increasing_300_N_left.0 tripinfo_flow_18_increasing_300_N_left.0" vType="moto" speedFactor="0.93" vaporized=""/>
    <tripinfo id="flow_25_increasing_300_E_straight.1" depart="347.00" departLane="E_in_0" departPos="61.32" departSpeed="6.26" departDelay="0.85" arrival="381.00" arrivalLane="W_out_0" arrivalPos="189.60" arrivalSpeed="13.92" duration="34.00" routeLength="338.68" waitingTime="0.00" waitingCount="0" stopTime="0.00" timeLoss="8.93" rerouteNo="0" devices="vehroute_flow_25_increasing_300_E_straight.1 tripinfo_flow_25_increasing_300_E_straight.1" vType="moto" speedFactor="1.01" vaporized=""/>
    <tripinfo id="flow_29_increasing_300_W_straight.1" depart="350.00" departLane="W_in_1" departPos="109.89" departSpeed="1.75" departDelay="0.26" arrival="384.00" arrivalLane="E_out_0" arrivalPos="189.60" arrivalSpeed="10.43" duration="34.00" routeLength="290.11" waitingTime="0.00" waitingCount="0" stopTime="0.00" timeLoss="7.27" rerouteNo="0" devices="vehroute_flow_29_increasing_300_W_straight.1 tripinfo_flow_29_increasing_300_W_straight.1" vType="moto" speedFactor="0.80" vaporized=""/>
    <tripinfo id="flow_17_increasing_300_N_straight.1" depart="351.00" departLane="N_in_1" departPos="21.74" departSpeed="11.66" departDelay="0.74" arrival="402.00" arrivalLane="S_out_0" arrivalPos="189.60" arrivalSpeed="13.98" duration="51.00" routeLength="378.26" waitingTime="18.00" waitingCount="1" stopTime="0.00" timeLoss="25.20" rerouteNo="0" devices="vehroute_flow_17_increasing_300_N_straight.1 tripinfo_flow_17_increasing_300_N_straight.1" vType="moto" speedFactor="1.06" vaporized=""/>