<?xml version="1.0" encoding="UTF-8"?>

<!-- generated on 2025-12-09 21:35:54 by Eclipse SUMO sumo Version 1.18.0
<configuration xmlns:xsi="http://www.w3.org/2001/XMLSchema-instance" xsi:noNamespaceSchemaLocation="http://sumo.dlr.de/xsd/sumoConfiguration.xsd">

    <input>
        <net-file value="/workspace/nets/120p4k/net.net.xml"/>
        <route-files value="/workspace/nets/120p4k/route_temp_334_123834910177792_74393419.rou.xml"/>
    </input>

    <output>
        <summary-output value="results/summary_ep_3.xml"/>
        <tripinfo-output value="results/tripinfo_ep_3.xml"/>
        <vehroute-output value="results/vehroute_ep_3.xml"/>
    </output>

    <time>
        <begin value="0"/>
    </time>

    <report>
        <verbose value="true"/>
        <no-step-log value="true"/>
    </report>

    <traci_server>
        <remote-port value="40489"/>
    </traci_server>

    <gui_only>
        <gui-settings-file value="/workspace/nets/120p4k/gui-settings.xml"/>
        <quit-on-end value="true"/>
    </gui_only>

</configuration>
-->

<routes xmlns:xsi="http://www.w3.org/2001/XMLSchema-instance" xsi:noNamespaceSchemaLocation="http://sumo.dlr.de/xsd/routes_file.xsd">
    <vehicle id="flow_9_increasing_0_E_straight.0" type="car" depart="0.00" departLane="0" departPos="168.2937" departSpeed="10.7269" speedFactor="0.9362" arrival="19.00">
        <route edges="S_in N_out"/>
    </vehicle>

    <vehicle id="flow_8_increasing_0_S_uturn.0" type="moto" depart="0.00" departLane="0" departPos="120.1072" departSpeed="4.4837" speedFactor="1.0505" arrival="24.00">
        <route edges="S_in S_out"/>
    </vehicle>

    <vehicle id="flow_6_increasing_0_S_left.0" type="moto" depart="0.00" departLane="1" departPos="166.0107" departSpeed="0.7376" speedFactor="0.8806" arrival="25.00">
        <route edges="S_in W_out"/>
    </vehicle>

    <vehicle id="flow_4_increasing_0_N_uturn.0" type="moto" depart="0.00" departLane="1" departPos="127.6015" departSpeed="0.0761" speedFactor="0.9074" arrival="27.00">
        <route edges="N_in N_out"/>
    </vehicle>

    <vehicle id="flow_14_increasing_0_W_left.0" type="moto" depart="0.00" departLane="1" departPos="42.3057" departSpeed="3.7077" speedFactor="1.0101" arrival="31.00">
        <route edges="S_in W_out"/>
    </vehicle>

    <vehicle id="flow_13_increasing_0_W_straight.0" type="bus" depart="0.00" departLane="0" departPos="77.991" departSpeed="3.9683" speedFactor="0.8617" arrival="33.00">
        <route edges="N_in E_out"/>
    </vehicle>

    <vehicle id="flow_16_increasing_0_W_uturn.0" type="moto" depart="0.00" departLane="1" departPos="126.6766" departSpeed="1.2848" speedFactor="1.0383" arrival="35.00">
        <route edges="W_in W_out"/>
    </vehicle>

    <vehicle id="flow_10_increasing_0_E_left.0" type="car" depart="0.00" departLane="0" departPos="44.8816" departSpeed="8.1909" speedFactor="1.0826" arrival="36.00">
        <route edges="E_in S_out"/>
    </vehicle>

    <vehicle id="flow_3_increasing_0_N_right.0" type="moto" depart="0.00" departLane="0" departPos="103.3842" departSpeed="3.8146" speedFactor="1.1088" arrival="37.00">
        <route edges="W_in W_out"/>
    </vehicle>

    <vehicle id="flow_5_increasing_0_S_straight.0" type="moto" depart="0.00" departLane="1" departPos="107.3659" departSpeed="7.2113" speedFactor="1.1475" arrival="39.00">
        <route edges="E_in N_out"/>
    </vehicle>

    <vehicle id="flow_12_increasing_0_E_uturn.0" type="moto" depart="0.00" departLane="0" departPos="5.6544" departSpeed="13.7593" speedFactor="1.0348" arrival="39.00">
        <route edges="E_in E_out"/>
    </vehicle>

    <vehicle id="flow_15_increasing_0_W_right.0" type="moto" depart="0.00" departLane="1" departPos="45.7673" departSpeed="6.7313" speedFactor="0.8472" arrival="39.00">
        <route edges="W_in S_out"/>
    </vehicle>

    <vehicle id="flow_11_increasing_0_E_right.0" type="bus" depart="0.00" departLane="1" departPos="144.9496" departSpeed="4.0187" speedFactor="0.9581" arrival="40.00">
        <route edges="E_in N_out"/>
    </vehicle>

    <vehicle id="flow_2_increasing_0_N_left.0" type="moto" depart="0.00" departLane="1" departPos="8.2688" departSpeed="8.3291" speedFactor="1.0157" arrival="49.00">
        <route edges="N_in E_out"/>
    </vehicle>

    <vehicle id="flow_7_increasing_0_S_right.0" type="bus" depart="0.00" departLane="0" departPos="8.759" departSpeed="8.4712" speedFactor="0.8915" arrival="54.00">
        <route edges="S_in E_out"/>
    </vehicle>

    <vehicle id="flow_1_increasing_0_N_straight.0" type="truck" depart="0.00" departLane="0" departPos="8.6229" departSpeed="8.5053" speedFactor="0.8588" arrival="55.00">
        <route edges="N_in S_out"/>
    </vehicle>

    <vehicle id="flow_5_increasing_0_S_straight.1" type="moto" depart="67.00" departLane="1" departPos="58.3562" departSpeed="11.6446" speedFactor="0.8727" arrival="98.00">
        <route edges="E_in N_out"/>
    </vehicle>

    <vehicle id="flow_9_increasing_0_E_straight.1" type="moto" depart="65.00" departLane="0" departPos="131.129" departSpeed="9.5396" speedFactor="1.1582" arrival="100.00">
        <route edges="S_in N_out"/>
    </vehicle>

    <vehicle id="flow_1_increasing_0_N_straight.1" type="moto" depart="70.00" departLane="1" departPos="121.6549" departSpeed="2.9213" speedFactor="1.1462" arrival="100.00">
        <route edges="N_in S_out"/>
    </vehicle>

    <vehicle id="flow_13_increasing_0_W_straight.1" type="moto" depart="68.00" departLane="1" departPos="31.9285" departSpeed="9.2811" speedFactor="1.1853" arrival="103.00">
        <route edges="N_in E_out"/>
    </vehicle>

    <vehicle id="flow_9_increasing_0_E_straight.2" type="moto" depart="129.00" departLane="1" departPos="52.8684" departSpeed="0.3845" speedFactor="0.9938" arrival="163.00">
        <route edges="S_in N_out"/>
    </vehicle>

    <vehicle id="flow_1_increasing_0_N_straight.2" type="moto" depart="140.00" departLane="1" departPos="107.5311" departSpeed="1.1094" speedFactor="0.9279" arrival="167.00">
        <route edges="N_in S_out"/>
    </vehicle>

    <vehicle id="flow_13_increasing_0_W_straight.2" type="truck" depart="135.00" departLane="1" departPos="59.5081" departSpeed="13.3195" speedFactor="0.9657" arrival="170.00">
        <route edges="N_in E_out"/>
    </vehicle>

    <vehicle id="flow_5_increasing_0_S_straight.2" type="moto" depart="133.00" departLane="1" departPos="12.6982" departSpeed="12.4143" speedFactor="0.9623" arrival="176.00">
        <route edges="E_in N_out"/>
    </vehicle>

    <vehicle id="flow_14_increasing_0_W_left.1" type="moto" depart="166.00" departLane="1" departPos="110.9191" departSpeed="11.9947" speedFactor="1.0453" arrival="189.00">
        <route edges="S_in W_out"/>
    </vehicle>

    <vehicle id="flow_6_increasing_0_S_left.1" type="moto" depart="166.00" departLane="0" departPos="73.8966" departSpeed="7.4845" speedFactor="1.0788" arrival="192.00">
        <route edges="S_in W_out"/>
    </vehicle>

    <vehicle id="flow_2_increasing_0_N_left.1" type="moto" depart="163.00" departLane="0" departPos="8.8817" departSpeed="2.8196" speedFactor="1.1228" arrival="193.00">
        <route edges="N_in E_out"/>
    </vehicle>

    <vehicle id="flow_7_increasing_0_S_right.1" type="container" depart="163.00" departLane="1" departPos="66.71" departSpeed="7.8717" speedFactor="0.7845" arrival="199.00">
        <route edges="S_in E_out"/>
    </vehicle>

    <vehicle id="flow_15_increasing_0_W_right.1" type="moto" depart="164.00" departLane="1" departPos="128.6773" departSpeed="3.0596" speedFactor="1.0365" arrival="201.00">
        <route edges="W_in S_out"/>
    </vehicle>

    <vehicle id="flow_11_increasing_0_E_right.1" type="moto" depart="170.00" departLane="0" departPos="19.8546" departSpeed="3.7056" speedFactor="0.8806" arrival="206.00">
        <route edges="E_in N_out"/>
    </vehicle>

    <vehicle id="flow_10_increasing_0_E_left.1" type="car" depart="170.00" departLane="1" departPos="185.2056" departSpeed="3.9115" speedFactor="0.7706" arrival="207.00">
        <route edges="E_in S_out"/>
    </vehicle>

    <vehicle id="flow_3_increasing_0_N_right.1" type="container" depart="174.00" departLane="1" departPos="175.3621" departSpeed="7.2456" speedFactor="0.9146" arrival="208.00">
        <route edges="W_in W_out"/>
    </vehicle>

    <vehicle id="flow_9_increasing_0_E_straight.3" type="truck" depart="193.00" departLane="0" departPos="134.7579" departSpeed="5.0315" speedFactor="0.8515" arrival="218.00">
        <route edges="S_in N_out"/>
    </vehicle>

    <vehicle id="flow_5_increasing_0_S_straight.3" type="moto" depart="200.00" departLane="1" departPos="108.7646" departSpeed="13.0742" speedFactor="1.0764" arrival="227.00">
        <route edges="E_in N_out"/>
    </vehicle>

    <vehicle id="flow_1_increasing_0_N_straight.3" type="moto" depart="210.00" departLane="0" departPos="19.2493" departSpeed="10.2819" speedFactor="1.0575" arrival="238.00">
        <route edges="N_in S_out"/>
    </vehicle>

    <vehicle id="flow_13_increasing_0_W_straight.3" type="moto" depart="203.00" departLane="1" departPos="77.9408" departSpeed="4.7411" speedFactor="1.2027" arrival="240.00">
        <route edges="N_in E_out"/>
    </vehicle>

    <vehicle id="flow_9_increasing_0_E_straight.4" type="bus" depart="257.00" departLane="0" departPos="148.0778" departSpeed="8.7623" speedFactor="0.9525" arrival="299.00">
        <route edges="S_in N_out"/>
    </vehicle>

    <vehicle id="flow_13_increasing_0_W_straight.4" type="truck" depart="270.00" departLane="0" departPos="167.2268" departSpeed="1.7052" speedFactor="0.8691" arrival="307.00">
        <route edges="N_in E_out"/>
    </vehicle>

    <vehicle id="flow_5_increasing_0_S_straight.4" type="container" depart="266.00" departLane="1" departPos="23.5668" departSpeed="9.6088" speedFactor="0.9706" arrival="312.00">
        <route edges="E_in N_out"/>
    </vehicle>

    <vehicle id="flow_1_increasing_0_N_straight.4" type="car" depart="280.00" departLane="0" departPos="8.0759" departSpeed="6.4168" speedFactor="0.9617" arrival="320.00">
        <route edges="N_in S_out"/>
    </vehicle>

    <vehicle id="flow_23_increasing_300_S_right.0" type="moto" depart="300.00" departLane="0" departPos="104.1356" departSpeed="12.091" speedFactor="1.0668" arrival="323.00">
        <route edges="S_in E_out"/>
    </vehicle>

    <vehicle id="flow_19_increasing_300_N_right.0" type="car" depart="300.00" departLane="0" departPos="81.6907" departSpeed="8.4325" speedFactor="0.9146" arrival="327.00">
        <route edges="N_in S_out"/>
    </vehicle>

    <vehicle id="flow_21_increasing_300_S_straight.0" type="moto" depart="300.00" departLane="1" departPos="108.7048" departSpeed="8.4657" speedFactor="1.0276" arrival="329.00">
        <route edges="S_in N_out"/>
    </vehicle>

    <vehicle id="flow_22_increasing_300_S_left.0" type="moto" depart="300.00" departLane="0" departPos="121.5569" departSpeed="10.8763" speedFactor="0.9135" arrival="331.00">
        <route edges="S_in W_out"/>
    </vehicle>

    <vehicle id="flow_27_increasing_300_E_right.0" type="moto" depart="300.00" departLane="1" departPos="124.8757" departSpeed="0.0131" speedFactor="1.1043" arrival="331.00">
        <route edges="E_in N_out"/>
    </vehicle>

    <vehicle id="flow_17_increasing_300_N_straight.0" type="car" depart="300.00" departLane="0" departPos="185.4693" departSpeed="4.1297" speedFactor="0.9376" arrival="332.00">
        <route edges="W_in S_out"/>
    </vehicle>

    <vehicle id="flow_18_increasing_300_N_left.0" type="moto" depart="300.00" departLane="1" departPos="171.4793" departSpeed="1.9862" speedFactor="0.9305" arrival="334.00">
        <route edges="N_in E_out"/>
    </vehicle>

    <vehicle id="flow_25_increasing_300_E_straight.0" type="moto" depart="300.00" departLane="0" departPos="31.7588" departSpeed="13.0465" speedFactor="1.0390" arrival="334.00">
        <route edges="E_in W_out"/>
    </vehicle>

    <vehicle id="flow_31_increasing_300_W_right.0" type="moto" depart="300.00" departLane="1" departPos="177.4982" departSpeed="6.5797" speedFactor="0.9711" arrival="334.00">
        <route edges="W_in S_out"/>
    </vehicle>

    <vehicle id="flow_30_increasing_300_W_left.0" type="moto" depart="300.00" departLane="1" departPos="74.602" departSpeed="10.5575" speedFactor="1.0983" arrival="337.00">
        <route edges="E_in W_out"/>
    </vehicle>

    <vehicle id="flow_26_increasing_300_E_left.0" type="moto" depart="300.00" departLane="1" departPos="89.1662" departSpeed="10.0046" speedFactor="0.9020" arrival="338.00">
        <route edges="E_in S_out"/>
    </vehicle>

    <vehicle id="flow_24_increasing_300_S_uturn.0" type="moto" depart="300.00" departLane="1" departPos="168.2148" departSpeed="0.3635" speedFactor="1.1413" arrival="339.00">
        <route edges="N_in E_out"/>
    </vehicle>

    <vehicle id="flow_29_increasing_300_W_straight.0" type="moto" depart="300.00" departLane="1" departPos="21.6793" departSpeed="5.8411" speedFactor="1.0203" arrival="339.00">
        <route edges="W_in E_out"/>
    </vehicle>

    <vehicle id="flow_32_increasing_300_W_uturn.0" type="moto" depart="300.00" departLane="1" departPos="159.9604" departSpeed="6.2771" speedFactor="0.9756" arrival="342.00">
        <route edges="W_in W_out"/>
    </vehicle>

    <vehicle id="flow_20_increasing_300_N_uturn.0" type="car" depart="300.00" departLane="0" departPos="71.9448" departSpeed="3.4087" speedFactor="0.8844" arrival="347.00">
        <route edges="N_in N_out"/>
    </vehicle>

    <vehicle id="flow_28_increasing_300_E_uturn.0" type="car" depart="300.00" departLane="1" departPos="92.2234" departSpeed="0.1455" speedFactor="0.8975" arrival="347.00">
        <route edges="S_in S_out"/>
    </vehicle>

    <vehicle id="flow_29_increasing_300_W_straight.1" type="moto" depart="350.00" departLane="1" departPos="152.0111" departSpeed="4.0771" speedFactor="0.8003" arrival="375.00">
        <route edges="W_in E_out"/>
    </vehicle>

    <vehicle id="flow_25_increasing_300_E_straight.1" type="moto" depart="347.00" departLane="1" departPos="29.0743" departSpeed="2.9088" speedFactor="1.0085" arrival="377.00">
        <route edges="E_in W_out"/>
    </vehicle>

    <vehicle id="flow_17_increasing_300_N_straight.1" type="moto" depart="351.00" departLane="0" departPos="24.5526" departSpeed="8.5602" speedFactor="1.0626" arrival="381.00">
        <route edges="W_in S_out"/>
    </vehicle>

    <vehicle id="flow_21_increasing_300_S_straight.1" type="truck" depart="350.00" departLane="1" departPos="137.1078" departSpeed="4.064" speedFactor="0.9040" arrival="408.00">
        <route edges="S_in N_out"/>
    </vehicle>

    <vehicle id="flow_25_increasing_300_E_straight.2" type="moto" depart="393.00" departLane="0" departPos="18.5245" departSpeed="1.7025" speedFactor="1.0682" arrival="423.00">
        <route edges="E_in W_out"/>
    </vehicle>

    <vehicle id="flow_17_increasing_300_N_straight.2" type="moto" depart="401.00" departLane="0" departPos="36.1232" departSpeed="7.4532" speedFactor="1.1705" arrival="427.00">
        <route edges="W_in S_out"/>
    </vehicle>

    <vehicle id="flow_29_increasing_300_W_straight.2" type="moto" depart="400.00" departLane="1" departPos="47.4954" departSpeed="3.9593" speedFactor="0.8878" arrival="432.00">
        <route edges="W_in E_out"/>
    </vehicle>

    <vehicle id="flow_31_increasing_300_W_right.1" type="car" depart="418.00" departLane="1" departPos="150.3544" departSpeed="9.0407" speedFactor="1.1439" arrival="437.00">
        <route edges="W_in S_out"/>
    </vehicle>

    <vehicle id="flow_27_increasing_300_E_right.1" type="moto" depart="415.00" departLane="1" departPos="41.8299" departSpeed="14.6004" speedFactor="1.1166" arrival="441.00">
        <route edges="E_in N_out"/>
    </vehicle>

    <vehicle id="flow_22_increasing_300_S_left.1" type="moto" depart="420.00" departLane="0" departPos="140.508" departSpeed="9.7782" speedFactor="0.9385" arrival="448.00">
        <route edges="S_in W_out"/>
    </vehicle>

    <vehicle id="flow_23_increasing_300_S_right.1" type="moto" depart="422.00" departLane="1" departPos="86.4019" departSpeed="1.805" speedFactor="1.0873" arrival="448.00">
        <route edges="S_in E_out"/>
    </vehicle>

    <vehicle id="flow_21_increasing_300_S_straight.2" type="moto" depart="399.00" departLane="1" departPos="37.0366" departSpeed="2.637" speedFactor="0.8330" arrival="450.00">
        <route edges="S_in N_out"/>
    </vehicle>

    <vehicle id="flow_18_increasing_300_N_left.1" type="moto" depart="420.00" departLane="0" departPos="107.9927" departSpeed="1.1308" speedFactor="0.9618" arrival="451.00">
        <route edges="N_in E_out"/>
    </vehicle>

    <vehicle id="flow_19_increasing_300_N_right.1" type="container" depart="424.00" departLane="1" departPos="16.1283" departSpeed="7.7968" speedFactor="0.9532" arrival="456.00">
        <route edges="N_in S_out"/>
    </vehicle>

    <vehicle id="flow_26_increasing_300_E_left.1" type="moto" depart="425.00" departLane="1" departPos="140.1205" departSpeed="11.4757" speedFactor="1.0413" arrival="460.00">
        <route edges="E_in S_out"/>
    </vehicle>

    <vehicle id="flow_30_increasing_300_W_left.1" type="moto" depart="427.00" departLane="1" departPos="74.7856" departSpeed="2.5777" speedFactor="0.9730" arrival="461.00">
        <route edges="E_in W_out"/>
    </vehicle>

    <vehicle id="flow_21_increasing_300_S_straight.3" type="moto" depart="449.00" departLane="1" departPos="103.4641" departSpeed="3.6855" speedFactor="1.2976" arrival="470.00">
        <route edges="S_in N_out"/>
    </vehicle>

    <vehicle id="flow_17_increasing_300_N_straight.3" type="car" depart="451.00" departLane="0" departPos="35.6434" departSpeed="3.2788" speedFactor="1.0212" arrival="485.00">
        <route edges="W_in S_out"/>
    </vehicle>

    <vehicle id="flow_25_increasing_300_E_straight.3" type="car" depart="439.00" departLane="1" departPos="2.2093" departSpeed="7.8196" speedFactor="1.0648" arrival="486.00">
        <route edges="E_in W_out"/>
    </vehicle>

    <vehicle id="flow_29_increasing_300_W_straight.3" type="moto" depart="450.00" departLane="1" departPos="42.0768" departSpeed="10.5538" speedFactor="0.8391" arrival="489.00">
        <route edges="W_in E_out"/>
    </vehicle>

    <vehicle id="flow_25_increasing_300_E_straight.4" type="moto" depart="485.00" departLane="1" departPos="84.7431" departSpeed="4.0987" speedFactor="1.1157" arrival="509.00">
        <route edges="E_in W_out"/>
    </vehicle>

    <vehicle id="flow_21_increasing_300_S_straight.4" type="moto" depart="498.00" departLane="0" departPos="157.0309" departSpeed="10.2025" speedFactor="0.9645" arrival="526.00">
        <route edges="S_in N_out"/>
    </vehicle>

    <vehicle id="flow_17_increasing_300_N_straight.4" type="moto" depart="502.00" departLane="1" departPos="9.2851" departSpeed="3.3873" speedFactor="1.1571" arrival="541.00">
        <route edges="W_in S_out"/>
    </vehicle>

    <vehicle id="flow_29_increasing_300_W_straight.4" type="bus" depart="499.00" departLane="1" departPos="69.3051" departSpeed="14.2261" speedFactor="1.0917" arrival="542.00">
        <route edges="W_in E_out"/>
    </vehicle>

    <vehicle id="flow_28_increasing_300_E_uturn.1" type="moto" depart="538.00" departLane="1" departPos="168.3233" departSpeed="4.0903" speedFactor="0.8620" arrival="563.00">
        <route edges="S_in S_out"/>
    </vehicle>

    <vehicle id="flow_27_increasing_300_E_right.2" type="moto" depart="530.00" departLane="0" departPos="174.1059" departSpeed="0.4334" speedFactor="0.9897" arrival="564.00">
        <route edges="E_in N_out"/>
    </vehicle>

    <vehicle id="flow_25_increasing_300_E_straight.5" type="truck" depart="531.00" departLane="1" departPos="53.9882" departSpeed="4.44" speedFactor="0.9315" arrival="565.00">
        <route edges="E_in W_out"/>
    </vehicle>

    <vehicle id="flow_31_increasing_300_W_right.2" type="truck" depart="535.00" departLane="1" departPos="103.2677" departSpeed="9.9808" speedFactor="0.9032" arrival="568.00">
        <route edges="W_in S_out"/>
    </vehicle>

    <vehicle id="flow_32_increasing_300_W_uturn.1" type="car" depart="536.00" departLane="1" departPos="90.2975" departSpeed="7.2739" speedFactor="1.0323" arrival="568.00">
        <route edges="W_in W_out"/>
    </vehicle>

    <vehicle id="flow_17_increasing_300_N_straight.5" type="moto" depart="552.00" departLane="1" departPos="175.5356" departSpeed="9.161" speedFactor="1.0140" arrival="572.00">
        <route edges="W_in S_out"/>
    </vehicle>

    <vehicle id="flow_24_increasing_300_S_uturn.1" type="moto" depart="540.00" departLane="0" departPos="124.2821" departSpeed="14.1861" speedFactor="1.1421" arrival="575.00">
        <route edges="N_in E_out"/>
    </vehicle>

    <vehicle id="flow_19_increasing_300_N_right.2" type="moto" depart="547.00" departLane="0" departPos="174.2328" departSpeed="5.1549" speedFactor="1.0387" arrival="577.00">
        <route edges="N_in S_out"/>
    </vehicle>

    <vehicle id="flow_22_increasing_300_S_left.2" type="moto" depart="540.00" departLane="0" departPos="45.7887" departSpeed="9.1133" speedFactor="1.0039" arrival="581.00">
        <route edges="S_in W_out"/>
    </vehicle>

    <vehicle id="flow_23_increasing_300_S_right.2" type="truck" depart="543.00" departLane="0" departPos="140.1793" departSpeed="13.158" speedFactor="1.0325" arrival="581.00">
        <route edges="S_in E_out"/>
    </vehicle>

    <vehicle id="flow_21_increasing_300_S_straight.5" type="truck" depart="548.00" departLane="0" departPos="151.3306" departSpeed="8.4329" speedFactor="0.8196" arrival="588.00">
        <route edges="S_in N_out"/>
    </vehicle>

    <vehicle id="flow_20_increasing_300_N_uturn.1" type="moto" depart="538.00" departLane="1" departPos="90.8186" departSpeed="11.3823" speedFactor="1.0281" arrival="589.00">
        <route edges="N_in N_out"/>
    </vehicle>

    <vehicle id="flow_30_increasing_300_W_left.2" type="car" depart="553.00" departLane="1" departPos="95.9942" departSpeed="11.8937" speedFactor="0.9547" arrival="592.00">
        <route edges="E_in W_out"/>
    </vehicle>

    <vehicle id="flow_29_increasing_300_W_straight.5" type="truck" depart="549.00" departLane="1" departPos="100.3851" departSpeed="2.4984" speedFactor="0.9784" arrival="595.00">
        <route edges="W_in E_out"/>
    </vehicle>

    <vehicle id="flow_26_increasing_300_E_left.2" type="moto" depart="549.00" departLane="0" departPos="88.8236" departSpeed="8.3719" speedFactor="1.0448" arrival="596.00">
        <route edges="E_in S_out"/>
    </vehicle>

    <vehicle id="flow_25_increasing_300_E_straight.6" type="moto" depart="577.00" departLane="1" departPos="170.8427" departSpeed="4.2324" speedFactor="1.0047" arrival="596.00">
        <route edges="E_in W_out"/>
    </vehicle>

    <vehicle id="flow_18_increasing_300_N_left.2" type="moto" depart="539.00" departLane="1" departPos="40.9491" departSpeed="2.2174" speedFactor="1.0387" arrival="603.00">
        <route edges="N_in E_out"/>
    </vehicle>

    <vehicle id="flow_29_increasing_300_W_straight.6" type="moto" depart="599.00" departLane="0" departPos="172.0661" departSpeed="15.3938" speedFactor="1.1365" arrival="615.00">
        <route edges="W_in E_out"/>
    </vehicle>

    <vehicle id="flow_45_increasing_600_W_straight.0" type="moto" depart="600.00" departLane="1" departPos="184.7809" departSpeed="12.0963" speedFactor="0.9662" arrival="617.00">
        <route edges="W_in E_out"/>
    </vehicle>

    <vehicle id="flow_44_increasing_600_E_uturn.0" type="moto" depart="600.00" departLane="0" departPos="158.7036" departSpeed="3.2437" speedFactor="1.1523" arrival="618.00">
        <route edges="E_in W_out"/>
    </vehicle>

    <vehicle id="flow_47_increasing_600_W_right.0" type="moto" depart="600.00" departLane="1" departPos="161.9597" departSpeed="5.7422" speedFactor="1.1530" arrival="619.00">
        <route edges="W_in E_out"/>
    </vehicle>

    <vehicle id="flow_21_increasing_300_S_straight.6" type="moto" depart="597.00" departLane="0" departPos="108.1488" departSpeed="10.3102" speedFactor="1.0699" arrival="629.00">
        <route edges="S_in N_out"/>
    </vehicle>

    <vehicle id="flow_35_increasing_600_N_right.0" type="car" depart="600.00" departLane="0" departPos="161.6079" departSpeed="1.0238" speedFactor="0.9394" arrival="629.00">
        <route edges="N_in W_out"/>
    </vehicle>

    <vehicle id="flow_40_increasing_600_S_uturn.0" type="moto" depart="600.00" departLane="1" departPos="113.0073" departSpeed="11.1516" speedFactor="0.8917" arrival="631.00">
        <route edges="S_in S_out"/>
    </vehicle>

    <vehicle id="flow_37_increasing_600_S_straight.0" type="car" depart="600.00" departLane="1" departPos="11.9624" departSpeed="0.7725" speedFactor="0.9778" arrival="634.00">
        <route edges="S_in N_out"/>
    </vehicle>

    <vehicle id="flow_33_increasing_600_N_straight.0" type="moto" depart="600.00" departLane="0" departPos="3.1111" departSpeed="7.431" speedFactor="0.8847" arrival="635.00">
        <route edges="N_in S_out"/>
    </vehicle>

    <vehicle id="flow_36_increasing_600_N_uturn.0" type="moto" depart="600.00" departLane="1" departPos="162.1669" departSpeed="0.1173" speedFactor="1.0775" arrival="636.00">
        <route edges="N_in N_out"/>
    </vehicle>

    <vehicle id="flow_34_increasing_600_N_left.0" type="moto" depart="600.00" departLane="1" departPos="168.8768" departSpeed="11.4074" speedFactor="0.9556" arrival="639.00">
        <route edges="N_in E_out"/>
    </vehicle>

    <vehicle id="flow_39_increasing_600_S_right.0" type="bus" depart="600.00" departLane="0" departPos="41.7947" departSpeed="9.3575" speedFactor="0.9554" arrival="641.00">
        <route edges="S_in S_out"/>
    </vehicle>

    <vehicle id="flow_41_increasing_600_E_straight.0" type="car" depart="600.00" departLane="0" departPos="72.1694" departSpeed="9.3977" speedFactor="0.9957" arrival="643.00">
        <route edges="E_in W_out"/>
    </vehicle>

    <vehicle id="flow_38_increasing_600_S_left.0" type="truck" depart="600.00" departLane="1" departPos="102.4537" departSpeed="0.655" speedFactor="1.0932" arrival="644.00">
        <route edges="W_in S_out"/>
    </vehicle>

    <vehicle id="flow_42_increasing_600_E_left.0" type="moto" depart="600.00" departLane="0" departPos="52.0012" departSpeed="1.7748" speedFactor="0.8543" arrival="645.00">
        <route edges="E_in S_out"/>
    </vehicle>

    <vehicle id="flow_43_increasing_600_E_right.0" type="moto" depart="600.00" departLane="0" departPos="15.88" departSpeed="1.1972" speedFactor="0.7657" arrival="649.00">
        <route edges="E_in N_out"/>
    </vehicle>

    <vehicle id="flow_48_increasing_600_W_uturn.0" type="moto" depart="600.00" departLane="0" departPos="44.9537" departSpeed="5.8578" speedFactor="0.9806" arrival="650.00">
        <route edges="W_in W_out"/>
    </vehicle>

    <vehicle id="flow_46_increasing_600_W_left.0" type="truck" depart="600.00" departLane="1" departPos="22.6696" departSpeed="10.7999" speedFactor="0.8815" arrival="651.00">
        <route edges="W_in N_out"/>
    </vehicle>

    <vehicle id="flow_37_increasing_600_S_straight.1" type="moto" depart="637.00" departLane="0" departPos="187.7648" departSpeed="10.4195" speedFactor="0.8756" arrival="656.00">
        <route edges="S_in N_out"/>
    </vehicle>

    <vehicle id="flow_33_increasing_600_N_straight.1" type="moto" depart="637.00" departLane="0" departPos="184.0677" departSpeed="10.9419" speedFactor="0.8416" arrival="657.00">
        <route edges="N_in S_out"/>
    </vehicle>

    <vehicle id="flow_41_increasing_600_E_straight.1" type="moto" depart="637.00" departLane="0" departPos="116.7981" departSpeed="7.7279" speedFactor="1.0747" arrival="668.00">
        <route edges="E_in W_out"/>
    </vehicle>

    <vehicle id="flow_45_increasing_600_W_straight.1" type="moto" depart="637.00" departLane="1" departPos="165.1863" departSpeed="7.1124" speedFactor="0.9471" arrival="669.00">
        <route edges="W_in E_out"/>
    </vehicle>

    <vehicle id="flow_41_increasing_600_E_straight.2" type="bus" depart="674.00" departLane="0" departPos="153.951" departSpeed="9.9084" speedFactor="0.9363" arrival="694.00">
        <route edges="E_in W_out"/>
    </vehicle>

    <vehicle id="flow_33_increasing_600_N_straight.2" type="bus" depart="674.00" departLane="1" departPos="2.7138" departSpeed="8.0976" speedFactor="1.0217" arrival="705.00">
        <route edges="N_in S_out"/>
    </vehicle>

    <vehicle id="flow_37_increasing_600_S_straight.2" type="truck" depart="673.00" departLane="1" departPos="160.2411" departSpeed="4.4373" speedFactor="0.9700" arrival="711.00">
        <route edges="S_in N_out"/>
    </vehicle>

    <vehicle id="flow_34_increasing_600_N_left.1" type="car" depart="692.00" departLane="0" departPos="100.2317" departSpeed="10.7084" speedFactor="1.0262" arrival="716.00">
        <route edges="N_in E_out"/>
    </vehicle>

    <vehicle id="flow_39_increasing_600_S_right.1" type="truck" depart="690.00" departLane="0" departPos="122.1483" departSpeed="12.2015" speedFactor="0.9234" arrival="718.00">
        <route edges="S_in S_out"/>
    </vehicle>

    <vehicle id="flow_43_increasing_600_E_right.1" type="moto" depart="692.00" departLane="0" departPos="154.1317" departSpeed="10.0499" speedFactor="0.9174" arrival="721.00">
        <route edges="E_in N_out"/>
    </vehicle>

    <vehicle id="flow_45_increasing_600_W_straight.2" type="truck" depart="674.00" departLane="0" departPos="9.9449" departSpeed="1.9747" speedFactor="1.0167" arrival="725.00">
        <route edges="W_in E_out"/>
    </vehicle>

    <vehicle id="flow_46_increasing_600_W_left.1" type="car" depart="699.00" departLane="0" departPos="116.1788" departSpeed="1.7294" speedFactor="0.9712" arrival="726.00">
        <route edges="W_in N_out"/>
    </vehicle>
