<?xml version="1.0" encoding="UTF-8"?>

<!-- generated on 2025-12-09 21:40:38 by Eclipse SUMO sumo Version 1.18.0
<configuration xmlns:xsi="http://www.w3.org/2001/XMLSchema-instance" xsi:noNamespaceSchemaLocation="http://sumo.dlr.de/xsd/sumoConfiguration.xsd">

    <input>
        <net-file value="/workspace/nets/120p4k/net.net.xml"/>
        <route-files value="/workspace/nets/120p4k/route_temp_334_123834910177792_74393419.rou.xml"/>
    </input>

    <output>
        <summary-output value="results/summary_ep_9.xml"/>
        <tripinfo-output value="results/tripinfo_ep_9.xml"/>
        <vehroute-output value="results/vehroute_ep_9.xml"/>
    </output>

    <time>
        <begin value="0"/>
    </time>

    <report>
        <verbose value="true"/>
        <no-step-log value="true"/>
    </report>

    <traci_server>
        <remote-port value="40727"/>
    </traci_server>

    <gui_only>
        <gui-settings-file value="/workspace/nets/120p4k/gui-settings.xml"/>
        <quit-on-end value="true"/>
    </gui_only>

</configuration>
-->

<routes xmlns:xsi="http://www.w3.org/2001/XMLSchema-instance" xsi:noNamespaceSchemaLocation="http://sumo.dlr.de/xsd/routes_file.xsd">
    <vehicle id="flow_5_increasing_0_S_straight.0" type="moto" depart="0.00" departLane="1" departPos="107.3659" departSpeed="7.2113" speedFactor="1.1475" arrival="21.00">
        <route edges="S_in N_out"/>
    </vehicle>

    <vehicle id="flow_3_increasing_0_N_right.0" type="moto" depart="0.00" departLane="0" departPos="103.3842" departSpeed="3.8146" speedFactor="1.1088" arrival="24.00">
        <route edges="N_in W_out"/>
    </vehicle>

    <vehicle id="flow_6_increasing_0_S_left.0" type="moto" depart="0.00" departLane="1" departPos="166.0107" departSpeed="0.7376" speedFactor="0.8806" arrival="25.00">
        <route edges="S_in W_out"/>
    </vehicle>

    <vehicle id="flow_4_increasing_0_N_uturn.0" type="moto" depart="0.00" departLane="1" departPos="127.6015" departSpeed="0.0761" speedFactor="0.9074" arrival="29.00">
        <route edges="N_in N_out"/>
    </vehicle>

    <vehicle id="flow_2_increasing_0_N_left.0" type="moto" depart="0.00" departLane="1" departPos="8.2688" departSpeed="8.3291" speedFactor="1.0157" arrival="31.00">
        <route edges="N_in E_out"/>
    </vehicle>

    <vehicle id="flow_13_increasing_0_W_straight.0" type="bus" depart="0.00" departLane="0" departPos="77.991" departSpeed="3.9683" speedFactor="0.8617" arrival="31.00">
        <route edges="N_in S_out"/>
    </vehicle>

    <vehicle id="flow_10_increasing_0_E_left.0" type="car" depart="0.00" departLane="0" departPos="44.8816" departSpeed="8.1909" speedFactor="1.0826" arrival="35.00">
        <route edges="E_in S_out"/>
    </vehicle>

    <vehicle id="flow_16_increasing_0_W_uturn.0" type="moto" depart="0.00" departLane="0" departPos="135.6701" departSpeed="9.6426" speedFactor="1.0383" arrival="35.00">
        <route edges="W_in W_out"/>
    </vehicle>

    <vehicle id="flow_8_increasing_0_S_uturn.0" type="moto" depart="0.00" departLane="0" departPos="120.1072" departSpeed="4.4837" speedFactor="1.0505" arrival="37.00">
        <route edges="W_in W_out"/>
    </vehicle>

    <vehicle id="flow_9_increasing_0_E_straight.0" type="car" depart="0.00" departLane="0" departPos="168.2937" departSpeed="10.7269" speedFactor="0.9362" arrival="37.00">
        <route edges="E_in W_out"/>
    </vehicle>

    <vehicle id="flow_15_increasing_0_W_right.0" type="moto" depart="0.00" departLane="1" departPos="153.8984" departSpeed="6.7313" speedFactor="0.8472" arrival="38.00">
        <route edges="W_in S_out"/>
    </vehicle>

    <vehicle id="flow_12_increasing_0_E_uturn.0" type="moto" depart="0.00" departLane="0" departPos="5.6544" departSpeed="13.7593" speedFactor="1.0348" arrival="39.00">
        <route edges="E_in E_out"/>
    </vehicle>

    <vehicle id="flow_14_increasing_0_W_left.0" type="moto" depart="0.00" departLane="1" departPos="42.3057" departSpeed="3.7077" speedFactor="1.0101" arrival="40.00">
        <route edges="W_in S_out"/>
    </vehicle>

    <vehicle id="flow_11_increasing_0_E_right.0" type="bus" depart="0.00" departLane="1" departPos="144.9496" departSpeed="4.0187" speedFactor="0.9581" arrival="41.00">
        <route edges="E_in N_out"/>
    </vehicle>

    <vehicle id="flow_7_increasing_0_S_right.0" type="bus" depart="0.00" departLane="0" departPos="8.759" departSpeed="8.4712" speedFactor="0.8915" arrival="54.00">
        <route edges="S_in E_out"/>
    </vehicle>

    <vehicle id="flow_1_increasing_0_N_straight.0" type="truck" depart="0.00" departLane="0" departPos="8.6229" departSpeed="8.5053" speedFactor="0.8588" arrival="55.00">
        <route edges="N_in S_out"/>
    </vehicle>

    <vehicle id="flow_13_increasing_0_W_straight.1" type="moto" depart="68.00" departLane="1" departPos="181.05" departSpeed="2.6944" speedFactor="1.1853" arrival="85.00">
        <route edges="N_in S_out"/>
    </vehicle>

    <vehicle id="flow_9_increasing_0_E_straight.1" type="moto" depart="65.00" departLane="1" departPos="177.286" departSpeed="8.4065" speedFactor="1.1582" arrival="93.00">
        <route edges="E_in W_out"/>
    </vehicle>

    <vehicle id="flow_1_increasing_0_N_straight.1" type="moto" depart="70.00" departLane="1" departPos="28.7874" departSpeed="10.2227" speedFactor="1.1462" arrival="156.00">
        <route edges="N_in S_out"/>
    </vehicle>

    <vehicle id="flow_5_increasing_0_S_straight.1" type="moto" depart="67.00" departLane="0" departPos="93.3916" departSpeed="3.7336" speedFactor="0.8727" arrival="159.00">
        <route edges="S_in N_out"/>
    </vehicle>

    <vehicle id="flow_5_increasing_0_S_straight.2" type="moto" depart="133.00" departLane="0" departPos="33.9342" departSpeed="0.8958" speedFactor="0.9623" arrival="164.00">
        <route edges="S_in N_out"/>
    </vehicle>

    <vehicle id="flow_13_increasing_0_W_straight.2" type="truck" depart="135.00" departLane="1" departPos="64.277" departSpeed="4.213" speedFactor="0.9657" arrival="164.00">
        <route edges="N_in S_out"/>
    </vehicle>

    <vehicle id="flow_1_increasing_0_N_straight.2" type="moto" depart="140.00" departLane="1" departPos="39.2795" departSpeed="7.315" speedFactor="0.9279" arrival="170.00">
        <route edges="N_in S_out"/>
    </vehicle>

    <vehicle id="flow_6_increasing_0_S_left.1" type="moto" depart="166.00" departLane="1" departPos="97.231" departSpeed="5.8444" speedFactor="1.0788" arrival="190.00">
        <route edges="S_in W_out"/>
    </vehicle>

    <vehicle id="flow_2_increasing_0_N_left.1" type="moto" depart="163.00" departLane="0" departPos="15.1679" departSpeed="0.7311" speedFactor="1.1228" arrival="194.00">
        <route edges="N_in E_out"/>
    </vehicle>

    <vehicle id="flow_7_increasing_0_S_right.1" type="container" depart="163.00" departLane="0" departPos="54.9911" departSpeed="3.8367" speedFactor="0.7845" arrival="203.00">
        <route edges="S_in E_out"/>
    </vehicle>

    <vehicle id="flow_3_increasing_0_N_right.1" type="container" depart="174.00" departLane="0" departPos="93.4122" departSpeed="11.7583" speedFactor="0.9146" arrival="204.00">
        <route edges="N_in W_out"/>
    </vehicle>

    <vehicle id="flow_15_increasing_0_W_right.1" type="moto" depart="164.00" departLane="0" departPos="80.2425" departSpeed="9.7779" speedFactor="1.0365" arrival="219.00">
        <route edges="W_in S_out"/>
    </vehicle>

    <vehicle id="flow_9_increasing_0_E_straight.2" type="moto" depart="129.00" departLane="1" departPos="103.6674" departSpeed="3.8519" speedFactor="0.9938" arrival="220.00">
        <route edges="E_in W_out"/>
    </vehicle>

    <vehicle id="flow_14_increasing_0_W_left.1" type="moto" depart="166.00" departLane="1" departPos="79.0964" departSpeed="8.5001" speedFactor="1.0453" arrival="221.00">
        <route edges="W_in S_out"/>
    </vehicle>

    <vehicle id="flow_11_increasing_0_E_right.1" type="moto" depart="170.00" departLane="0" departPos="166.0021" departSpeed="1.2818" speedFactor="0.8806" arrival="223.00">
        <route edges="E_in N_out"/>
    </vehicle>

    <vehicle id="flow_10_increasing_0_E_left.1" type="car" depart="170.00" departLane="0" departPos="4.5211" departSpeed="10.4631" speedFactor="0.7706" arrival="225.00">
        <route edges="E_in S_out"/>
    </vehicle>

    <vehicle id="flow_9_increasing_0_E_straight.3" type="truck" depart="193.00" departLane="0" departPos="86.4153" departSpeed="8.4123" speedFactor="0.8515" arrival="225.00">
        <route edges="E_in W_out"/>
    </vehicle>

    <vehicle id="flow_5_increasing_0_S_straight.3" type="moto" depart="200.00" departLane="0" departPos="184.1938" departSpeed="4.9526" speedFactor="1.0764" arrival="282.00">
        <route edges="S_in N_out"/>
    </vehicle>

    <vehicle id="flow_13_increasing_0_W_straight.3" type="moto" depart="203.00" departLane="0" departPos="65.0085" departSpeed="6.5773" speedFactor="1.2027" arrival="282.00">
        <route edges="N_in S_out"/>
    </vehicle>

    <vehicle id="flow_1_increasing_0_N_straight.3" type="moto" depart="210.00" departLane="1" departPos="88.4153" departSpeed="1.4924" speedFactor="1.0575" arrival="284.00">
        <route edges="N_in S_out"/>
    </vehicle>

    <vehicle id="flow_5_increasing_0_S_straight.4" type="container" depart="266.00" departLane="0" departPos="135.2371" departSpeed="1.6769" speedFactor="0.9706" arrival="294.00">
        <route edges="S_in N_out"/>
    </vehicle>

    <vehicle id="flow_13_increasing_0_W_straight.4" type="truck" depart="270.00" departLane="0" departPos="70.4575" departSpeed="10.655" speedFactor="0.8691" arrival="305.00">
        <route edges="N_in S_out"/>
    </vehicle>

    <vehicle id="flow_1_increasing_0_N_straight.4" type="car" depart="280.00" departLane="1" departPos="74.0695" departSpeed="0.5694" speedFactor="0.9617" arrival="309.00">
        <route edges="N_in S_out"/>
    </vehicle>

    <vehicle id="flow_17_increasing_300_N_straight.0" type="car" depart="300.00" departLane="1" departPos="160.3044" departSpeed="12.7487" speedFactor="0.9376" arrival="320.00">
        <route edges="N_in S_out"/>
    </vehicle>

    <vehicle id="flow_29_increasing_300_W_straight.0" type="moto" depart="300.00" departLane="1" departPos="155.3486" departSpeed="12.0732" speedFactor="1.0203" arrival="324.00">
        <route edges="W_in E_out"/>
    </vehicle>

    <vehicle id="flow_27_increasing_300_E_right.0" type="moto" depart="300.00" departLane="1" departPos="174.172" departSpeed="9.6423" speedFactor="1.1043" arrival="327.00">
        <route edges="E_in N_out"/>
    </vehicle>

    <vehicle id="flow_31_increasing_300_W_right.0" type="moto" depart="300.00" departLane="0" departPos="87.7633" departSpeed="10.5831" speedFactor="0.9711" arrival="327.00">
        <route edges="W_in S_out"/>
    </vehicle>

    <vehicle id="flow_9_increasing_0_E_straight.4" type="bus" depart="257.00" departLane="1" departPos="53.3168" departSpeed="10.3403" speedFactor="0.9525" arrival="329.00">
        <route edges="E_in W_out"/>
    </vehicle>

    <vehicle id="flow_26_increasing_300_E_left.0" type="moto" depart="300.00" departLane="0" departPos="64.2471" departSpeed="5.8964" speedFactor="0.9020" arrival="330.00">
        <route edges="W_in E_out"/>
    </vehicle>

    <vehicle id="flow_28_increasing_300_E_uturn.0" type="car" depart="300.00" departLane="1" departPos="78.0885" departSpeed="6.0681" speedFactor="0.8975" arrival="332.00">
        <route edges="E_in E_out"/>
    </vehicle>

    <vehicle id="flow_30_increasing_300_W_left.0" type="moto" depart="300.00" departLane="0" departPos="92.4194" departSpeed="15.2167" speedFactor="1.0983" arrival="333.00">
        <route edges="W_in N_out"/>
    </vehicle>

    <vehicle id="flow_23_increasing_300_S_right.0" type="moto" depart="300.00" departLane="1" departPos="2.773" departSpeed="8.1444" speedFactor="1.0668" arrival="335.00">
        <route edges="S_in E_out"/>
    </vehicle>

    <vehicle id="flow_19_increasing_300_N_right.0" type="car" depart="300.00" departLane="1" departPos="111.6918" departSpeed="5.4775" speedFactor="0.9146" arrival="338.00">
        <route edges="N_in W_out"/>
    </vehicle>

    <vehicle id="flow_21_increasing_300_S_straight.0" type="moto" depart="300.00" departLane="1" departPos="19.5053" departSpeed="8.1894" speedFactor="1.0276" arrival="338.00">
        <route edges="S_in N_out"/>
    </vehicle>

    <vehicle id="flow_32_increasing_300_W_uturn.0" type="moto" depart="300.00" departLane="1" departPos="39.3431" departSpeed="4.5134" speedFactor="0.9756" arrival="340.00">
        <route edges="N_in S_out"/>
    </vehicle>

    <vehicle id="flow_20_increasing_300_N_uturn.0" type="car" depart="300.00" departLane="1" departPos="129.0888" departSpeed="4.6647" speedFactor="0.8844" arrival="341.00">
        <route edges="N_in N_out"/>
    </vehicle>

    <vehicle id="flow_18_increasing_300_N_left.0" type="moto" depart="300.00" departLane="1" departPos="65.3279" departSpeed="11.6978" speedFactor="0.9305" arrival="343.00">
        <route edges="N_in S_out"/>
    </vehicle>

    <vehicle id="flow_24_increasing_300_S_uturn.0" type="moto" depart="300.00" departLane="0" departPos="91.5182" departSpeed="14.0747" speedFactor="1.1413" arrival="344.00">
        <route edges="S_in S_out"/>
    </vehicle>

    <vehicle id="flow_22_increasing_300_S_left.0" type="moto" depart="300.00" departLane="0" departPos="155.6805" departSpeed="8.1408" speedFactor="0.9135" arrival="346.00">
        <route edges="S_in W_out"/>
    </vehicle>

    <vehicle id="flow_25_increasing_300_E_straight.0" type="moto" depart="300.00" departLane="1" departPos="65.5698" departSpeed="2.4191" speedFactor="1.0390" arrival="360.00">
        <route edges="E_in W_out"/>
    </vehicle>

    <vehicle id="flow_25_increasing_300_E_straight.1" type="moto" depart="347.00" departLane="0" departPos="61.3216" departSpeed="6.2595" speedFactor="1.0085" arrival="374.00">
        <route edges="E_in W_out"/>
    </vehicle>

    <vehicle id="flow_29_increasing_300_W_straight.1" type="moto" depart="350.00" departLane="1" departPos="109.8853" departSpeed="1.7533" speedFactor="0.8003" arrival="380.00">
        <route edges="W_in E_out"/>
    </vehicle>

    <vehicle id="flow_17_increasing_300_N_straight.1" type="moto" depart="351.00" departLane="1" departPos="21.7404" departSpeed="11.6613" speedFactor="1.0626" arrival="404.00">
        <route edges="N_in S_out"/>
    </vehicle>

    <vehicle id="flow_21_increasing_300_S_straight.1" type="truck" depart="350.00" departLane="0" departPos="69.4902" departSpeed="5.5867" speedFactor="0.9040" arrival="410.00">
        <route edges="S_in N_out"/>
    </vehicle>

    <vehicle id="flow_17_increasing_300_N_straight.2" type="moto" depart="401.00" departLane="0" departPos="178.3578" departSpeed="3.8147" speedFactor="1.1705" arrival="422.00">
        <route edges="N_in S_out"/>
    </vehicle>

    <vehicle id="flow_21_increasing_300_S_straight.2" type="moto" depart="399.00" departLane="0" departPos="60.8307" departSpeed="10.6473" speedFactor="0.8330" arrival="431.00">
        <route edges="S_in N_out"/>
    </vehicle>

    <vehicle id="flow_18_increasing_300_N_left.1" type="moto" depart="420.00" departLane="1" departPos="142.1182" departSpeed="0.463" speedFactor="0.9618" arrival="444.00">
        <route edges="N_in S_out"/>
    </vehicle>

    <vehicle id="flow_23_increasing_300_S_right.1" type="moto" depart="422.00" departLane="1" departPos="111.5719" departSpeed="0.1108" speedFactor="1.0873" arrival="447.00">
        <route edges="S_in E_out"/>
    </vehicle>

    <vehicle id="flow_19_increasing_300_N_right.1" type="container" depart="424.00" departLane="0" departPos="150.3232" departSpeed="5.7009" speedFactor="0.9532" arrival="450.00">
        <route edges="N_in W_out"/>
    </vehicle>

    <vehicle id="flow_22_increasing_300_S_left.1" type="moto" depart="420.00" departLane="1" departPos="22.6438" departSpeed="8.6894" speedFactor="0.9385" arrival="454.00">
        <route edges="S_in W_out"/>
    </vehicle>

    <vehicle id="flow_25_increasing_300_E_straight.2" type="moto" depart="393.00" departLane="0" departPos="43.1808" departSpeed="3.3553" speedFactor="1.0682" arrival="467.00">
        <route edges="E_in W_out"/>
    </vehicle>

    <vehicle id="flow_27_increasing_300_E_right.1" type="moto" depart="415.00" departLane="1" departPos="107.805" departSpeed="14.2483" speedFactor="1.1166" arrival="468.00">
        <route edges="E_in N_out"/>
    </vehicle>

    <vehicle id="flow_31_increasing_300_W_right.1" type="car" depart="418.00" departLane="0" departPos="16.037" departSpeed="6.4129" speedFactor="1.1439" arrival="468.00">
        <route edges="W_in S_out"/>
    </vehicle>

    <vehicle id="flow_26_increasing_300_E_left.1" type="moto" depart="425.00" departLane="0" departPos="36.1365" departSpeed="8.7502" speedFactor="1.0413" arrival="468.00">
        <route edges="W_in E_out"/>
    </vehicle>

    <vehicle id="flow_25_increasing_300_E_straight.3" type="car" depart="439.00" departLane="1" departPos="109.812" departSpeed="0.1725" speedFactor="1.0648" arrival="468.00">
        <route edges="E_in W_out"/>
    </vehicle>

    <vehicle id="flow_29_increasing_300_W_straight.2" type="moto" depart="400.00" departLane="1" departPos="88.3207" departSpeed="10.4988" speedFactor="0.8878" arrival="470.00">
        <route edges="W_in E_out"/>
    </vehicle>

    <vehicle id="flow_30_increasing_300_W_left.1" type="moto" depart="427.00" departLane="1" departPos="20.793" departSpeed="5.3347" speedFactor="0.9730" arrival="471.00">
        <route edges="W_in N_out"/>
    </vehicle>

    <vehicle id="flow_29_increasing_300_W_straight.3" type="moto" depart="450.00" departLane="0" departPos="173.6034" departSpeed="2.5884" speedFactor="0.8391" arrival="474.00">
        <route edges="W_in E_out"/>
    </vehicle>

    <vehicle id="flow_25_increasing_300_E_straight.4" type="moto" depart="485.00" departLane="1" departPos="57.3268" departSpeed="6.9315" speedFactor="1.1157" arrival="509.00">
        <route edges="E_in W_out"/>
    </vehicle>

    <vehicle id="flow_17_increasing_300_N_straight.4" type="moto" depart="502.00" departLane="1" departPos="9.2851" departSpeed="9.2081" speedFactor="1.1571" arrival="528.00">
        <route edges="N_in S_out"/>
    </vehicle>

    <vehicle id="flow_21_increasing_300_S_straight.3" type="moto" depart="449.00" departLane="0" departPos="178.6166" departSpeed="7.7412" speedFactor="1.2976" arrival="530.00">
        <route edges="S_in N_out"/>
    </vehicle>

    <vehicle id="flow_17_increasing_300_N_straight.3" type="car" depart="451.00" departLane="0" departPos="65.7387" departSpeed="2.6685" speedFactor="1.0212" arrival="531.00">
        <route edges="N_in S_out"/>
    </vehicle>

    <vehicle id="flow_21_increasing_300_S_straight.4" type="moto" depart="498.00" departLane="1" departPos="58.7528" departSpeed="11.1036" speedFactor="0.9645" arrival="532.00">
        <route edges="S_in N_out"/>
    </vehicle>

    <vehicle id="flow_32_increasing_300_W_uturn.1" type="car" depart="536.00" departLane="1" departPos="90.2975" departSpeed="7.2739" speedFactor="1.0323" arrival="560.00">
        <route edges="N_in S_out"/>
    </vehicle>

    <vehicle id="flow_24_increasing_300_S_uturn.1" type="moto" depart="540.00" departLane="0" departPos="124.2821" departSpeed="14.1861" speedFactor="1.1421" arrival="563.00">
        <route edges="S_in S_out"/>
    </vehicle>

    <vehicle id="flow_20_increasing_300_N_uturn.1" type="moto" depart="538.00" departLane="1" departPos="90.8186" departSpeed="11.3823" speedFactor="1.0281" arrival="564.00">
        <route edges="N_in N_out"/>
    </vehicle>

    <vehicle id="flow_23_increasing_300_S_right.2" type="truck" depart="543.00" departLane="0" departPos="140.1793" departSpeed="13.158" speedFactor="1.0325" arrival="565.00">
        <route edges="S_in E_out"/>
    </vehicle>

    <vehicle id="flow_19_increasing_300_N_right.2" type="moto" depart="547.00" departLane="0" departPos="174.2328" departSpeed="5.1549" speedFactor="1.0387" arrival="566.00">
        <route edges="N_in W_out"/>
    </vehicle>

    <vehicle id="flow_18_increasing_300_N_left.2" type="moto" depart="539.00" departLane="1" departPos="40.9491" departSpeed="2.2174" speedFactor="1.0387" arrival="567.00">
        <route edges="N_in S_out"/>
    </vehicle>

    <vehicle id="flow_17_increasing_300_N_straight.5" type="moto" depart="552.00" departLane="1" departPos="175.5356" departSpeed="9.161" speedFactor="1.0140" arrival="570.00">
        <route edges="N_in S_out"/>
    </vehicle>

    <vehicle id="flow_21_increasing_300_S_straight.5" type="truck" depart="548.00" departLane="0" departPos="151.3306" departSpeed="8.4329" speedFactor="0.8196" arrival="571.00">
        <route edges="S_in N_out"/>
    </vehicle>

    <vehicle id="flow_22_increasing_300_S_left.2" type="moto" depart="540.00" departLane="0" departPos="45.7887" departSpeed="9.1133" speedFactor="1.0039" arrival="573.00">
        <route edges="S_in W_out"/>
    </vehicle>

    <vehicle id="flow_27_increasing_300_E_right.2" type="moto" depart="530.00" departLane="0" departPos="174.1059" departSpeed="0.4334" speedFactor="0.9897" arrival="593.00">
        <route edges="E_in N_out"/>
    </vehicle>

    <vehicle id="flow_26_increasing_300_E_left.2" type="moto" depart="549.00" departLane="0" departPos="88.8236" departSpeed="8.3719" speedFactor="1.0448" arrival="594.00">
        <route edges="W_in E_out"/>
    </vehicle>

    <vehicle id="flow_29_increasing_300_W_straight.4" type="bus" depart="499.00" departLane="0" departPos="2.521" departSpeed="5.5468" speedFactor="1.0917" arrival="598.00">
        <route edges="W_in E_out"/>
    </vehicle>

    <vehicle id="flow_29_increasing_300_W_straight.5" type="truck" depart="549.00" departLane="1" departPos="100.3851" departSpeed="2.4984" speedFactor="0.9784" arrival="600.00">
        <route edges="W_in E_out"/>
    </vehicle>

    <vehicle id="flow_31_increasing_300_W_right.2" type="truck" depart="535.00" departLane="1" departPos="103.2677" departSpeed="9.9808" speedFactor="0.9032" arrival="601.00">
        <route edges="W_in S_out"/>
    </vehicle>

    <vehicle id="flow_25_increasing_300_E_straight.5" type="truck" depart="531.00" departLane="1" departPos="53.9882" departSpeed="4.44" speedFactor="0.9315" arrival="603.00">
        <route edges="E_in W_out"/>
    </vehicle>

    <vehicle id="flow_28_increasing_300_E_uturn.1" type="moto" depart="538.00" departLane="1" departPos="168.3233" departSpeed="4.0903" speedFactor="0.8620" arrival="606.00">
        <route edges="E_in E_out"/>
    </vehicle>

    <vehicle id="flow_25_increasing_300_E_straight.6" type="moto" depart="577.00" departLane="1" departPos="170.8427" departSpeed="4.2324" speedFactor="1.0047" arrival="606.00">
        <route edges="E_in W_out"/>
    </vehicle>

    <vehicle id="flow_30_increasing_300_W_left.2" type="car" depart="553.00" departLane="1" departPos="95.9942" departSpeed="9.2312" speedFactor="0.9547" arrival="610.00">
        <route edges="W_in N_out"/>
    </vehicle>

    <vehicle id="flow_29_increasing_300_W_straight.6" type="moto" depart="599.00" departLane="0" departPos="172.0661" departSpeed="15.3938" speedFactor="1.1365" arrival="615.00">
        <route edges="W_in E_out"/>
    </vehicle>

    <vehicle id="flow_34_increasing_600_N_left.0" type="moto" depart="600.00" departLane="1" departPos="168.8768" departSpeed="11.4074" speedFactor="0.9556" arrival="620.00">
        <route edges="W_in N_out"/>
    </vehicle>

    <vehicle id="flow_46_increasing_600_W_left.0" type="truck" depart="600.00" departLane="0" departPos="167.1176" departSpeed="10.1203" speedFactor="0.8815" arrival="624.00">
        <route edges="W_in N_out"/>
    </vehicle>

    <vehicle id="flow_42_increasing_600_E_left.0" type="moto" depart="600.00" departLane="0" departPos="154.6775" departSpeed="4.52" speedFactor="0.8543" arrival="625.00">
        <route edges="E_in S_out"/>
    </vehicle>

    <vehicle id="flow_47_increasing_600_W_right.0" type="moto" depart="600.00" departLane="0" departPos="98.6919" departSpeed="1.913" speedFactor="1.1530" arrival="625.00">
        <route edges="W_in S_out"/>
    </vehicle>

    <vehicle id="flow_38_increasing_600_S_left.0" type="truck" depart="600.00" departLane="0" departPos="8.1725" departSpeed="3.7901" speedFactor="1.0932" arrival="632.00">
        <route edges="W_in E_out"/>
    </vehicle>

    <vehicle id="flow_37_increasing_600_S_straight.0" type="car" depart="600.00" departLane="0" departPos="10.777" departSpeed="1.9562" speedFactor="0.9778" arrival="634.00">
        <route edges="E_in N_out"/>
    </vehicle>

    <vehicle id="flow_43_increasing_600_E_right.0" type="moto" depart="600.00" departLane="1" departPos="97.1832" departSpeed="2.9191" speedFactor="0.7657" arrival="634.00">
        <route edges="W_in W_out"/>
    </vehicle>

    <vehicle id="flow_44_increasing_600_E_uturn.0" type="moto" depart="600.00" departLane="1" departPos="15.5808" departSpeed="1.3401" speedFactor="1.1523" arrival="634.00">
        <route edges="E_in E_out"/>
    </vehicle>

    <vehicle id="flow_48_increasing_600_W_uturn.0" type="moto" depart="600.00" departLane="1" departPos="50.8725" departSpeed="11.6433" speedFactor="0.9806" arrival="634.00">
        <route edges="W_in W_out"/>
    </vehicle>

    <vehicle id="flow_21_increasing_300_S_straight.6" type="moto" depart="597.00" departLane="0" departPos="108.1488" departSpeed="10.3102" speedFactor="1.0699" arrival="657.00">
        <route edges="S_in N_out"/>
    </vehicle>

    <vehicle id="flow_35_increasing_600_N_right.0" type="car" depart="600.00" departLane="0" departPos="161.6079" departSpeed="1.0238" speedFactor="0.9394" arrival="657.00">
        <route edges="N_in W_out"/>
    </vehicle>

    <vehicle id="flow_41_increasing_600_E_straight.0" type="car" depart="600.00" departLane="1" departPos="49.5467" departSpeed="8.2492" speedFactor="0.9957" arrival="657.00">
        <route edges="N_in S_out"/>
    </vehicle>

    <vehicle id="flow_41_increasing_600_E_straight.1" type="moto" depart="637.00" departLane="1" departPos="120.4896" departSpeed="14.7937" speedFactor="1.0747" arrival="657.00">
        <route edges="N_in S_out"/>
    </vehicle>

    <vehicle id="flow_33_increasing_600_N_straight.0" type="moto" depart="600.00" departLane="0" departPos="3.1111" departSpeed="7.431" speedFactor="0.8847" arrival="660.00">
        <route edges="N_in S_out"/>
    </vehicle>

    <vehicle id="flow_40_increasing_600_S_uturn.0" type="moto" depart="600.00" departLane="0" departPos="144.3932" departSpeed="2.7322" speedFactor="0.8917" arrival="660.00">
        <route edges="S_in E_out"/>
    </vehicle>

    <vehicle id="flow_36_increasing_600_N_uturn.0" type="moto" depart="600.00" departLane="1" departPos="187.4776" departSpeed="0.1173" speedFactor="1.0775" arrival="661.00">
        <route edges="S_in W_out"/>
    </vehicle>

    <vehicle id="flow_39_increasing_600_S_right.0" type="bus" depart="600.00" departLane="1" departPos="133.5978" departSpeed="9.0665" speedFactor="0.9554" arrival="664.00">
        <route edges="S_in E_out"/>
    </vehicle>

    <vehicle id="flow_45_increasing_600_W_straight.0" type="moto" depart="600.00" departLane="1" departPos="80.1718" departSpeed="11.2417" speedFactor="0.9662" arrival="665.00">
        <route edges="S_in N_out"/>
    </vehicle>

    <vehicle id="flow_45_increasing_600_W_straight.1" type="moto" depart="637.00" departLane="1" departPos="0.9771" departSpeed="8.1098" speedFactor="0.9471" arrival="670.00">
        <route edges="S_in N_out"/>
    </vehicle>

    <vehicle id="flow_33_increasing_600_N_straight.1" type="moto" depart="637.00" departLane="1" departPos="43.1771" departSpeed="2.7736" speedFactor="0.8416" arrival="671.00">
        <route edges="N_in S_out"/>
    </vehicle>

    <vehicle id="flow_33_increasing_600_N_straight.2" type="bus" depart="674.00" departLane="0" departPos="27.7577" departSpeed="12.0026" speedFactor="1.0217" arrival="702.00">
        <route edges="N_in S_out"/>
    </vehicle>

    <vehicle id="flow_45_increasing_600_W_straight.2" type="truck" depart="674.00" departLane="0" departPos="7.5649" departSpeed="11.475" speedFactor="1.0167" arrival="703.00">
        <route edges="S_in N_out"/>
    </vehicle>

    <vehicle id="flow_41_increasing_600_E_straight.2" type="bus" depart="674.00" departLane="1" departPos="22.618" departSpeed="0.1863" speedFactor="0.9363" arrival="711.00">
        <route edges="N_in S_out"/>
    </vehicle>

    <vehicle id="flow_39_increasing_600_S_right.1" type="truck" depart="690.00" departLane="0" departPos="184.144" departSpeed="0.6732" speedFactor="0.9234" arrival="712.00">
        <route edges="S_in E_out"/>
    </vehicle>

    <vehicle id="flow_34_increasing_600_N_left.1" type="car" depart="692.00" departLane="1" departPos="127.7831" departSpeed="9.1896" speedFactor="1.0262" arrival="721.00">
        <route edges="W_in N_out"/>
    </vehicle>

    <vehicle id="flow_42_increasing_600_E_left.1" type="car" depart="693.00" departLane="1" departPos="80.4314" departSpeed="10.6421" speedFactor="0.9418" arrival="721.00">
        <route edges="E_in S_out"/>
    </vehicle>

    <vehicle id="flow_37_increasing_600_S_straight.1" type="moto" depart="637.00" departLane="0" departPos="114.397" departSpeed="11.8157" speedFactor="0.8756" arrival="722.00">
        <route edges="E_in N_out"/>
    </vehicle>

    <vehicle id="flow_47_increasing_600_W_right.1" type="moto" depart="695.00" departLane="0" departPos="99.1978" departSpeed="6.4567" speedFactor="0.8950" arrival="723.00">
        <route edges="W_in S_out"/>
    </vehicle>

    <vehicle id="flow_37_increasing_600_S_straight.2" type="truck" depart="673.00" departLane="1" departPos="138.898" departSpeed="11.7469" speedFactor="0.9700" arrival="724.00">
        <route edges="E_in N_out"/>
    </vehicle>
