<?xml version="1.0" encoding="UTF-8"?>

<!-- generated on 2025-12-09 21:39:09 by Eclipse SUMO sumo Version 1.18.0
<configuration xmlns:xsi="http://www.w3.org/2001/XMLSchema-instance" xsi:noNamespaceSchemaLocation="http://sumo.dlr.de/xsd/sumoConfiguration.xsd">

    <input>
        <net-file value="/workspace/nets/120p4k/net.net.xml"/>
        <route-files value="/workspace/nets/120p4k/route_temp_334_123834910177792_74393419.rou.xml"/>
    </input>

    <output>
        <summary-output value="results/summary_ep_7.xml"/>
        <tripinfo-output value="results/tripinfo_ep_7.xml"/>
        <vehroute-output value="results/vehroute_ep_7.xml"/>
    </output>

    <time>
        <begin value="0"/>
    </time>

    <report>
        <verbose value="true"/>
        <no-step-log value="true"/>
    </report>

    <traci_server>
        <remote-port value="48717"/>
    </traci_server>

    <gui_only>
        <gui-settings-file value="/workspace/nets/120p4k/gui-settings.xml"/>
        <quit-on-end value="true"/>
    </gui_only>

</configuration>
-->

<routes xmlns:xsi="http://www.w3.org/2001/XMLSchema-instance" xsi:noNamespaceSchemaLocation="http://sumo.dlr.de/xsd/routes_file.xsd">
    <vehicle id="flow_3_increasing_0_N_right.0" type="moto" depart="0.00" departLane="0" departPos="103.3842" departSpeed="3.8146" speedFactor="1.1088" arrival="24.00">
        <route edges="N_in W_out"/>
    </vehicle>

    <vehicle id="flow_6_increasing_0_S_left.0" type="moto" depart="0.00" departLane="1" departPos="166.0107" departSpeed="0.7376" speedFactor="0.8806" arrival="25.00">
        <route edges="S_in W_out"/>
    </vehicle>

    <vehicle id="flow_8_increasing_0_S_uturn.0" type="moto" depart="0.00" departLane="0" departPos="120.1072" departSpeed="4.4837" speedFactor="1.0505" arrival="25.00">
        <route edges="S_in S_out"/>
    </vehicle>

    <vehicle id="flow_4_increasing_0_N_uturn.0" type="moto" depart="0.00" departLane="1" departPos="127.6015" departSpeed="0.0761" speedFactor="0.9074" arrival="27.00">
        <route edges="N_in N_out"/>
    </vehicle>

    <vehicle id="flow_5_increasing_0_S_straight.0" type="moto" depart="0.00" departLane="1" departPos="107.3659" departSpeed="7.2113" speedFactor="1.1475" arrival="35.00">
        <route edges="W_in E_out"/>
    </vehicle>

    <vehicle id="flow_7_increasing_0_S_right.0" type="bus" depart="0.00" departLane="0" departPos="8.759" departSpeed="8.4712" speedFactor="0.8915" arrival="36.00">
        <route edges="S_in E_out"/>
    </vehicle>

    <vehicle id="flow_9_increasing_0_E_straight.0" type="car" depart="0.00" departLane="0" departPos="168.2937" departSpeed="10.7269" speedFactor="0.9362" arrival="37.00">
        <route edges="E_in W_out"/>
    </vehicle>

    <vehicle id="flow_15_increasing_0_W_right.0" type="moto" depart="0.00" departLane="0" departPos="108.377" departSpeed="2.6276" speedFactor="0.8472" arrival="39.00">
        <route edges="E_in W_out"/>
    </vehicle>

    <vehicle id="flow_14_increasing_0_W_left.0" type="moto" depart="0.00" departLane="1" departPos="182.8773" departSpeed="5.6108" speedFactor="1.0101" arrival="40.00">
        <route edges="W_in N_out"/>
    </vehicle>

    <vehicle id="flow_16_increasing_0_W_uturn.0" type="moto" depart="0.00" departLane="0" departPos="126.6766" departSpeed="11.7148" speedFactor="1.0383" arrival="40.00">
        <route edges="W_in W_out"/>
    </vehicle>

    <vehicle id="flow_11_increasing_0_E_right.0" type="bus" depart="0.00" departLane="1" departPos="144.9496" departSpeed="4.0187" speedFactor="0.9581" arrival="41.00">
        <route edges="E_in N_out"/>
    </vehicle>

    <vehicle id="flow_13_increasing_0_W_straight.0" type="bus" depart="0.00" departLane="0" departPos="24.5296" departSpeed="3.9683" speedFactor="0.8617" arrival="42.00">
        <route edges="W_in E_out"/>
    </vehicle>

    <vehicle id="flow_10_increasing_0_E_left.0" type="car" depart="0.00" departLane="0" departPos="44.8816" departSpeed="8.1909" speedFactor="1.0826" arrival="43.00">
        <route edges="E_in S_out"/>
    </vehicle>

    <vehicle id="flow_12_increasing_0_E_uturn.0" type="moto" depart="0.00" departLane="0" departPos="5.6544" departSpeed="13.7593" speedFactor="1.0348" arrival="44.00">
        <route edges="E_in E_out"/>
    </vehicle>

    <vehicle id="flow_1_increasing_0_N_straight.0" type="truck" depart="0.00" departLane="0" departPos="8.6229" departSpeed="8.5053" speedFactor="0.8588" arrival="53.00">
        <route edges="N_in N_out"/>
    </vehicle>

    <vehicle id="flow_2_increasing_0_N_left.0" type="moto" depart="0.00" departLane="1" departPos="8.2688" departSpeed="8.3291" speedFactor="1.0157" arrival="53.00">
        <route edges="N_in E_out"/>
    </vehicle>

    <vehicle id="flow_9_increasing_0_E_straight.1" type="moto" depart="65.00" departLane="0" departPos="131.129" departSpeed="9.5396" speedFactor="1.1582" arrival="93.00">
        <route edges="E_in W_out"/>
    </vehicle>

    <vehicle id="flow_5_increasing_0_S_straight.1" type="moto" depart="67.00" departLane="1" departPos="58.3562" departSpeed="11.6446" speedFactor="0.8727" arrival="97.00">
        <route edges="W_in E_out"/>
    </vehicle>

    <vehicle id="flow_13_increasing_0_W_straight.1" type="moto" depart="68.00" departLane="1" departPos="31.9285" departSpeed="9.2811" speedFactor="1.1853" arrival="101.00">
        <route edges="W_in E_out"/>
    </vehicle>

    <vehicle id="flow_1_increasing_0_N_straight.1" type="moto" depart="70.00" departLane="1" departPos="121.6549" departSpeed="2.9213" speedFactor="1.1462" arrival="144.00">
        <route edges="N_in N_out"/>
    </vehicle>

    <vehicle id="flow_1_increasing_0_N_straight.2" type="moto" depart="140.00" departLane="1" departPos="107.5311" departSpeed="1.1094" speedFactor="0.9279" arrival="169.00">
        <route edges="N_in N_out"/>
    </vehicle>

    <vehicle id="flow_6_increasing_0_S_left.1" type="moto" depart="166.00" departLane="0" departPos="73.8966" departSpeed="6.6263" speedFactor="1.0788" arrival="193.00">
        <route edges="S_in W_out"/>
    </vehicle>

    <vehicle id="flow_2_increasing_0_N_left.1" type="moto" depart="163.00" departLane="0" departPos="8.8817" departSpeed="2.8196" speedFactor="1.1228" arrival="194.00">
        <route edges="N_in E_out"/>
    </vehicle>

    <vehicle id="flow_7_increasing_0_S_right.1" type="container" depart="163.00" departLane="1" departPos="66.71" departSpeed="7.8717" speedFactor="0.7845" arrival="199.00">
        <route edges="S_in E_out"/>
    </vehicle>

    <vehicle id="flow_9_increasing_0_E_straight.2" type="moto" depart="129.00" departLane="1" departPos="52.8684" departSpeed="0.3845" speedFactor="0.9938" arrival="200.00">
        <route edges="E_in W_out"/>
    </vehicle>

    <vehicle id="flow_15_increasing_0_W_right.1" type="moto" depart="164.00" departLane="1" departPos="128.6773" departSpeed="3.0596" speedFactor="1.0365" arrival="200.00">
        <route edges="E_in W_out"/>
    </vehicle>

    <vehicle id="flow_5_increasing_0_S_straight.2" type="moto" depart="133.00" departLane="1" departPos="12.6982" departSpeed="12.4143" speedFactor="0.9623" arrival="201.00">
        <route edges="W_in E_out"/>
    </vehicle>

    <vehicle id="flow_14_increasing_0_W_left.1" type="moto" depart="166.00" departLane="1" departPos="110.9191" departSpeed="11.9947" speedFactor="1.0453" arrival="202.00">
        <route edges="W_in N_out"/>
    </vehicle>

    <vehicle id="flow_11_increasing_0_E_right.1" type="moto" depart="170.00" departLane="0" departPos="166.0021" departSpeed="1.2818" speedFactor="0.8806" arrival="203.00">
        <route edges="E_in N_out"/>
    </vehicle>

    <vehicle id="flow_13_increasing_0_W_straight.2" type="truck" depart="135.00" departLane="1" departPos="59.5081" departSpeed="13.3195" speedFactor="0.9657" arrival="205.00">
        <route edges="W_in E_out"/>
    </vehicle>

    <vehicle id="flow_10_increasing_0_E_left.1" type="car" depart="170.00" departLane="1" departPos="4.5211" departSpeed="3.9115" speedFactor="0.7706" arrival="212.00">
        <route edges="E_in S_out"/>
    </vehicle>

    <vehicle id="flow_5_increasing_0_S_straight.3" type="moto" depart="200.00" departLane="0" departPos="184.1938" departSpeed="8.583" speedFactor="1.0764" arrival="216.00">
        <route edges="W_in E_out"/>
    </vehicle>

    <vehicle id="flow_9_increasing_0_E_straight.3" type="truck" depart="193.00" departLane="0" departPos="86.4153" departSpeed="8.4123" speedFactor="0.8515" arrival="221.00">
        <route edges="E_in W_out"/>
    </vehicle>

    <vehicle id="flow_13_increasing_0_W_straight.3" type="moto" depart="203.00" departLane="0" departPos="65.0085" departSpeed="6.5773" speedFactor="1.2027" arrival="226.00">
        <route edges="W_in E_out"/>
    </vehicle>

    <vehicle id="flow_1_increasing_0_N_straight.3" type="moto" depart="210.00" departLane="1" departPos="88.4153" departSpeed="1.4924" speedFactor="1.0575" arrival="251.00">
        <route edges="N_in N_out"/>
    </vehicle>

    <vehicle id="flow_3_increasing_0_N_right.1" type="container" depart="174.00" departLane="0" departPos="93.4122" departSpeed="11.7583" speedFactor="0.9146" arrival="261.00">
        <route edges="N_in W_out"/>
    </vehicle>

    <vehicle id="flow_9_increasing_0_E_straight.4" type="bus" depart="257.00" departLane="1" departPos="53.3168" departSpeed="10.3403" speedFactor="0.9525" arrival="311.00">
        <route edges="E_in W_out"/>
    </vehicle>

    <vehicle id="flow_13_increasing_0_W_straight.4" type="truck" depart="270.00" departLane="0" departPos="70.4575" departSpeed="10.655" speedFactor="0.8691" arrival="311.00">
        <route edges="W_in E_out"/>
    </vehicle>

    <vehicle id="flow_5_increasing_0_S_straight.4" type="container" depart="266.00" departLane="0" departPos="135.2371" departSpeed="1.6769" speedFactor="0.9706" arrival="314.00">
        <route edges="W_in E_out"/>
    </vehicle>

    <vehicle id="flow_27_increasing_300_E_right.0" type="moto" depart="300.00" departLane="1" departPos="174.172" departSpeed="10.1098" speedFactor="1.1043" arrival="316.00">
        <route edges="W_in E_out"/>
    </vehicle>

    <vehicle id="flow_24_increasing_300_S_uturn.0" type="moto" depart="300.00" departLane="0" departPos="91.5182" departSpeed="14.0747" speedFactor="1.1413" arrival="321.00">
        <route edges="E_in W_out"/>
    </vehicle>

    <vehicle id="flow_29_increasing_300_W_straight.0" type="moto" depart="300.00" departLane="0" departPos="161.4056" departSpeed="1.6216" speedFactor="1.0203" arrival="321.00">
        <route edges="W_in E_out"/>
    </vehicle>

    <vehicle id="flow_28_increasing_300_E_uturn.0" type="car" depart="300.00" departLane="1" departPos="172.3747" departSpeed="6.0681" speedFactor="0.8975" arrival="325.00">
        <route edges="E_in E_out"/>
    </vehicle>

    <vehicle id="flow_30_increasing_300_W_left.0" type="moto" depart="300.00" departLane="1" departPos="92.4194" departSpeed="6.0069" speedFactor="1.0983" arrival="325.00">
        <route edges="W_in N_out"/>
    </vehicle>

    <vehicle id="flow_25_increasing_300_E_straight.0" type="moto" depart="300.00" departLane="1" departPos="65.5698" departSpeed="2.4191" speedFactor="1.0390" arrival="329.00">
        <route edges="E_in W_out"/>
    </vehicle>

    <vehicle id="flow_26_increasing_300_E_left.0" type="moto" depart="300.00" departLane="0" departPos="64.2471" departSpeed="5.8964" speedFactor="0.9020" arrival="331.00">
        <route edges="E_in S_out"/>
    </vehicle>

    <vehicle id="flow_32_increasing_300_W_uturn.0" type="moto" depart="300.00" departLane="1" departPos="39.3431" departSpeed="4.5134" speedFactor="0.9756" arrival="335.00">
        <route edges="W_in W_out"/>
    </vehicle>

    <vehicle id="flow_23_increasing_300_S_right.0" type="moto" depart="300.00" departLane="1" departPos="2.773" departSpeed="8.1444" speedFactor="1.0668" arrival="358.00">
        <route edges="S_in E_out"/>
    </vehicle>

    <vehicle id="flow_21_increasing_300_S_straight.0" type="moto" depart="300.00" departLane="1" departPos="19.5053" departSpeed="8.1894" speedFactor="1.0276" arrival="359.00">
        <route edges="S_in N_out"/>
    </vehicle>

    <vehicle id="flow_17_increasing_300_N_straight.0" type="car" depart="300.00" departLane="1" departPos="160.3044" departSpeed="11.5978" speedFactor="0.9376" arrival="360.00">
        <route edges="N_in S_out"/>
    </vehicle>

    <vehicle id="flow_1_increasing_0_N_straight.4" type="car" depart="280.00" departLane="1" departPos="74.0695" departSpeed="0.5694" speedFactor="0.9617" arrival="362.00">
        <route edges="N_in N_out"/>
    </vehicle>

    <vehicle id="flow_19_increasing_300_N_right.0" type="car" depart="300.00" departLane="1" departPos="111.6918" departSpeed="5.4775" speedFactor="0.9146" arrival="362.00">
        <route edges="N_in W_out"/>
    </vehicle>

    <vehicle id="flow_22_increasing_300_S_left.0" type="moto" depart="300.00" departLane="0" departPos="155.6805" departSpeed="8.1408" speedFactor="0.9135" arrival="368.00">
        <route edges="N_in N_out"/>
    </vehicle>

    <vehicle id="flow_31_increasing_300_W_right.0" type="moto" depart="300.00" departLane="0" departPos="87.7633" departSpeed="10.5831" speedFactor="0.9711" arrival="368.00">
        <route edges="N_in S_out"/>
    </vehicle>

    <vehicle id="flow_20_increasing_300_N_uturn.0" type="car" depart="300.00" departLane="1" departPos="129.0888" departSpeed="4.6647" speedFactor="0.8844" arrival="371.00">
        <route edges="N_in N_out"/>
    </vehicle>

    <vehicle id="flow_18_increasing_300_N_left.0" type="moto" depart="300.00" departLane="1" departPos="65.3279" departSpeed="11.6978" speedFactor="0.9305" arrival="374.00">
        <route edges="N_in E_out"/>
    </vehicle>

    <vehicle id="flow_25_increasing_300_E_straight.1" type="moto" depart="347.00" departLane="0" departPos="61.3216" departSpeed="6.2595" speedFactor="1.0085" arrival="381.00">
        <route edges="E_in W_out"/>
    </vehicle>

    <vehicle id="flow_29_increasing_300_W_straight.1" type="moto" depart="350.00" departLane="1" departPos="109.8853" departSpeed="1.7533" speedFactor="0.8003" arrival="384.00">
        <route edges="W_in E_out"/>
    </vehicle>

    <vehicle id="flow_17_increasing_300_N_straight.1" type="moto" depart="351.00" departLane="1" departPos="21.7404" departSpeed="11.6613" speedFactor="1.0626" arrival="402.00">
        <route edges="N_in S_out"/>
    </vehicle>

    <vehicle id="flow_21_increasing_300_S_straight.1" type="truck" depart="350.00" departLane="0" departPos="69.4902" departSpeed="5.5867" speedFactor="0.9040" arrival="407.00">
        <route edges="S_in N_out"/>
    </vehicle>

    <vehicle id="flow_17_increasing_300_N_straight.2" type="moto" depart="401.00" departLane="0" departPos="178.3578" departSpeed="3.8147" speedFactor="1.1705" arrival="418.00">
        <route edges="N_in S_out"/>
    </vehicle>

    <vehicle id="flow_21_increasing_300_S_straight.2" type="moto" depart="399.00" departLane="0" departPos="60.8307" departSpeed="10.6473" speedFactor="0.8330" arrival="430.00">
        <route edges="S_in N_out"/>
    </vehicle>

    <vehicle id="flow_18_increasing_300_N_left.1" type="moto" depart="420.00" departLane="1" departPos="142.1182" departSpeed="0.463" speedFactor="0.9618" arrival="444.00">
        <route edges="N_in E_out"/>
    </vehicle>

    <vehicle id="flow_27_increasing_300_E_right.1" type="moto" depart="415.00" departLane="1" departPos="107.805" departSpeed="14.2483" speedFactor="1.1166" arrival="447.00">
        <route edges="W_in E_out"/>
    </vehicle>

    <vehicle id="flow_25_increasing_300_E_straight.2" type="moto" depart="393.00" departLane="0" departPos="43.1808" departSpeed="3.3553" speedFactor="1.0682" arrival="448.00">
        <route edges="E_in W_out"/>
    </vehicle>

    <vehicle id="flow_29_increasing_300_W_straight.2" type="moto" depart="400.00" departLane="1" departPos="88.3207" departSpeed="10.4988" speedFactor="0.8878" arrival="450.00">
        <route edges="W_in E_out"/>
    </vehicle>

    <vehicle id="flow_26_increasing_300_E_left.1" type="moto" depart="425.00" departLane="0" departPos="36.1365" departSpeed="8.7502" speedFactor="1.0413" arrival="455.00">
        <route edges="E_in S_out"/>
    </vehicle>

    <vehicle id="flow_30_increasing_300_W_left.1" type="moto" depart="427.00" departLane="1" departPos="20.793" departSpeed="5.3347" speedFactor="0.9730" arrival="460.00">
        <route edges="W_in N_out"/>
    </vehicle>

    <vehicle id="flow_25_increasing_300_E_straight.3" type="car" depart="439.00" departLane="1" departPos="109.812" departSpeed="0.1725" speedFactor="1.0648" arrival="463.00">
        <route edges="E_in W_out"/>
    </vehicle>

    <vehicle id="flow_29_increasing_300_W_straight.3" type="moto" depart="450.00" departLane="0" departPos="173.6034" departSpeed="2.5884" speedFactor="0.8391" arrival="472.00">
        <route edges="W_in E_out"/>
    </vehicle>

    <vehicle id="flow_31_increasing_300_W_right.1" type="car" depart="418.00" departLane="0" departPos="16.037" departSpeed="6.4129" speedFactor="1.1439" arrival="478.00">
        <route edges="N_in S_out"/>
    </vehicle>

    <vehicle id="flow_23_increasing_300_S_right.1" type="moto" depart="422.00" departLane="1" departPos="111.5719" departSpeed="0.1108" speedFactor="1.0873" arrival="478.00">
        <route edges="S_in E_out"/>
    </vehicle>

    <vehicle id="flow_21_increasing_300_S_straight.3" type="moto" depart="449.00" departLane="0" departPos="178.6166" departSpeed="5.7907" speedFactor="1.2976" arrival="478.00">
        <route edges="S_in N_out"/>
    </vehicle>

    <vehicle id="flow_22_increasing_300_S_left.1" type="moto" depart="420.00" departLane="1" departPos="22.6438" departSpeed="8.6894" speedFactor="0.9385" arrival="484.00">
        <route edges="N_in N_out"/>
    </vehicle>

    <vehicle id="flow_17_increasing_300_N_straight.3" type="car" depart="451.00" departLane="0" departPos="65.7387" departSpeed="2.6685" speedFactor="1.0212" arrival="485.00">
        <route edges="N_in S_out"/>
    </vehicle>

    <vehicle id="flow_19_increasing_300_N_right.1" type="container" depart="424.00" departLane="0" departPos="150.3232" departSpeed="5.7009" speedFactor="0.9532" arrival="486.00">
        <route edges="N_in W_out"/>
    </vehicle>

    <vehicle id="flow_25_increasing_300_E_straight.4" type="moto" depart="485.00" departLane="1" departPos="57.3268" departSpeed="6.9315" speedFactor="1.1157" arrival="509.00">
        <route edges="E_in W_out"/>
    </vehicle>

    <vehicle id="flow_29_increasing_300_W_straight.4" type="bus" depart="499.00" departLane="0" departPos="2.521" departSpeed="5.5468" speedFactor="1.0917" arrival="530.00">
        <route edges="W_in E_out"/>
    </vehicle>

    <vehicle id="flow_17_increasing_300_N_straight.4" type="moto" depart="502.00" departLane="1" departPos="9.2851" departSpeed="9.2081" speedFactor="1.1571" arrival="546.00">
        <route edges="N_in S_out"/>
    </vehicle>

    <vehicle id="flow_21_increasing_300_S_straight.4" type="moto" depart="498.00" departLane="1" departPos="58.7528" departSpeed="11.1036" speedFactor="0.9645" arrival="548.00">
        <route edges="S_in N_out"/>
    </vehicle>

    <vehicle id="flow_31_increasing_300_W_right.2" type="truck" depart="535.00" departLane="1" departPos="103.2677" departSpeed="9.9808" speedFactor="0.9032" arrival="560.00">
        <route edges="N_in S_out"/>
    </vehicle>

    <vehicle id="flow_20_increasing_300_N_uturn.1" type="moto" depart="538.00" departLane="1" departPos="90.8186" departSpeed="11.3823" speedFactor="1.0281" arrival="565.00">
        <route edges="N_in N_out"/>
    </vehicle>

    <vehicle id="flow_23_increasing_300_S_right.2" type="truck" depart="543.00" departLane="0" departPos="140.1793" departSpeed="13.158" speedFactor="1.0325" arrival="565.00">
        <route edges="S_in E_out"/>
    </vehicle>

    <vehicle id="flow_19_increasing_300_N_right.2" type="moto" depart="547.00" departLane="0" departPos="174.2328" departSpeed="5.1549" speedFactor="1.0387" arrival="566.00">
        <route edges="N_in W_out"/>
    </vehicle>

    <vehicle id="flow_22_increasing_300_S_left.2" type="moto" depart="540.00" departLane="0" departPos="45.7887" departSpeed="9.1133" speedFactor="1.0039" arrival="570.00">
        <route edges="N_in N_out"/>
    </vehicle>

    <vehicle id="flow_21_increasing_300_S_straight.5" type="truck" depart="548.00" departLane="0" departPos="151.3306" departSpeed="8.4329" speedFactor="0.8196" arrival="571.00">
        <route edges="S_in N_out"/>
    </vehicle>

    <vehicle id="flow_18_increasing_300_N_left.2" type="moto" depart="539.00" departLane="1" departPos="40.9491" departSpeed="2.2174" speedFactor="1.0387" arrival="572.00">
        <route edges="N_in E_out"/>
    </vehicle>

    <vehicle id="flow_17_increasing_300_N_straight.5" type="moto" depart="552.00" departLane="1" departPos="175.5356" departSpeed="5.2875" speedFactor="1.0140" arrival="574.00">
        <route edges="N_in S_out"/>
    </vehicle>

    <vehicle id="flow_27_increasing_300_E_right.2" type="moto" depart="530.00" departLane="0" departPos="174.1059" departSpeed="0.4334" speedFactor="0.9897" arrival="600.00">
        <route edges="W_in E_out"/>
    </vehicle>

    <vehicle id="flow_32_increasing_300_W_uturn.1" type="car" depart="536.00" departLane="1" departPos="90.2975" departSpeed="7.2739" speedFactor="1.0323" arrival="600.00">
        <route edges="W_in W_out"/>
    </vehicle>

    <vehicle id="flow_24_increasing_300_S_uturn.1" type="moto" depart="540.00" departLane="0" departPos="124.2821" departSpeed="14.1861" speedFactor="1.1421" arrival="600.00">
        <route edges="E_in W_out"/>
    </vehicle>

    <vehicle id="flow_28_increasing_300_E_uturn.1" type="moto" depart="538.00" departLane="1" departPos="168.3233" departSpeed="4.0903" speedFactor="0.8620" arrival="603.00">
        <route edges="E_in E_out"/>
    </vehicle>

    <vehicle id="flow_25_increasing_300_E_straight.5" type="truck" depart="531.00" departLane="1" departPos="53.9882" departSpeed="4.44" speedFactor="0.9315" arrival="605.00">
        <route edges="E_in W_out"/>
    </vehicle>

    <vehicle id="flow_29_increasing_300_W_straight.5" type="truck" depart="549.00" departLane="1" departPos="100.3851" departSpeed="2.4984" speedFactor="0.9784" arrival="605.00">
        <route edges="W_in E_out"/>
    </vehicle>

    <vehicle id="flow_26_increasing_300_E_left.2" type="moto" depart="549.00" departLane="0" departPos="88.8236" departSpeed="8.3719" speedFactor="1.0448" arrival="607.00">
        <route edges="E_in S_out"/>
    </vehicle>

    <vehicle id="flow_25_increasing_300_E_straight.6" type="moto" depart="577.00" departLane="1" departPos="170.8427" departSpeed="4.2324" speedFactor="1.0047" arrival="609.00">
        <route edges="E_in W_out"/>
    </vehicle>

    <vehicle id="flow_30_increasing_300_W_left.2" type="car" depart="553.00" departLane="1" departPos="95.9942" departSpeed="9.4203" speedFactor="0.9547" arrival="613.00">
        <route edges="W_in N_out"/>
    </vehicle>

    <vehicle id="flow_29_increasing_300_W_straight.6" type="moto" depart="599.00" departLane="0" departPos="172.0661" departSpeed="15.3938" speedFactor="1.1365" arrival="615.00">
        <route edges="W_in E_out"/>
    </vehicle>

    <vehicle id="flow_47_increasing_600_W_right.0" type="moto" depart="600.00" departLane="1" departPos="161.9597" departSpeed="5.7422" speedFactor="1.1530" arrival="618.00">
        <route edges="W_in S_out"/>
    </vehicle>

    <vehicle id="flow_44_increasing_600_E_uturn.0" type="moto" depart="600.00" departLane="0" departPos="158.7036" departSpeed="3.2437" speedFactor="1.1523" arrival="620.00">
        <route edges="E_in S_out"/>
    </vehicle>

    <vehicle id="flow_41_increasing_600_E_straight.0" type="car" depart="600.00" departLane="0" departPos="72.1694" departSpeed="9.3977" speedFactor="0.9957" arrival="625.00">
        <route edges="E_in W_out"/>
    </vehicle>

    <vehicle id="flow_42_increasing_600_E_left.0" type="moto" depart="600.00" departLane="0" departPos="52.0012" departSpeed="1.7748" speedFactor="0.8543" arrival="635.00">
        <route edges="E_in S_out"/>
    </vehicle>

    <vehicle id="flow_46_increasing_600_W_left.0" type="truck" depart="600.00" departLane="0" departPos="22.6696" departSpeed="6.5007" speedFactor="0.8815" arrival="636.00">
        <route edges="W_in N_out"/>
    </vehicle>

    <vehicle id="flow_48_increasing_600_W_uturn.0" type="moto" depart="600.00" departLane="0" departPos="44.9537" departSpeed="4.1466" speedFactor="0.9806" arrival="636.00">
        <route edges="E_in S_out"/>
    </vehicle>

    <vehicle id="flow_43_increasing_600_E_right.0" type="moto" depart="600.00" departLane="0" departPos="15.88" departSpeed="1.1972" speedFactor="0.7657" arrival="641.00">
        <route edges="E_in N_out"/>
    </vehicle>

    <vehicle id="flow_21_increasing_300_S_straight.6" type="moto" depart="597.00" departLane="0" departPos="108.1488" departSpeed="10.3102" speedFactor="1.0699" arrival="652.00">
        <route edges="S_in N_out"/>
    </vehicle>

    <vehicle id="flow_35_increasing_600_N_right.0" type="car" depart="600.00" departLane="0" departPos="161.6079" departSpeed="1.0238" speedFactor="0.9394" arrival="653.00">
        <route edges="N_in W_out"/>
    </vehicle>

    <vehicle id="flow_37_increasing_600_S_straight.0" type="car" depart="600.00" departLane="1" departPos="11.9624" departSpeed="0.7725" speedFactor="0.9778" arrival="655.00">
        <route edges="S_in N_out"/>
    </vehicle>

    <vehicle id="flow_40_increasing_600_S_uturn.0" type="moto" depart="600.00" departLane="1" departPos="113.0073" departSpeed="11.1516" speedFactor="0.8917" arrival="655.00">
        <route edges="S_in S_out"/>
    </vehicle>

    <vehicle id="flow_36_increasing_600_N_uturn.0" type="moto" depart="600.00" departLane="1" departPos="162.1669" departSpeed="0.1173" speedFactor="1.0775" arrival="656.00">
        <route edges="N_in N_out"/>
    </vehicle>

    <vehicle id="flow_33_increasing_600_N_straight.0" type="moto" depart="600.00" departLane="0" departPos="3.1111" departSpeed="7.431" speedFactor="0.8847" arrival="657.00">
        <route edges="N_in S_out"/>
    </vehicle>

    <vehicle id="flow_34_increasing_600_N_left.0" type="moto" depart="600.00" departLane="1" departPos="168.8768" departSpeed="11.4074" speedFactor="0.9556" arrival="659.00">
        <route edges="N_in E_out"/>
    </vehicle>

    <vehicle id="flow_38_increasing_600_S_left.0" type="truck" depart="600.00" departLane="1" departPos="102.4537" departSpeed="0.655" speedFactor="1.0932" arrival="660.00">
        <route edges="S_in W_out"/>
    </vehicle>

    <vehicle id="flow_45_increasing_600_W_straight.0" type="moto" depart="600.00" departLane="1" departPos="11.4261" departSpeed="12.0963" speedFactor="0.9662" arrival="663.00">
        <route edges="N_in N_out"/>
    </vehicle>

    <vehicle id="flow_37_increasing_600_S_straight.1" type="moto" depart="637.00" departLane="0" departPos="120.4896" departSpeed="10.4195" speedFactor="0.8756" arrival="663.00">
        <route edges="S_in N_out"/>
    </vehicle>

    <vehicle id="flow_33_increasing_600_N_straight.1" type="moto" depart="637.00" departLane="0" departPos="184.0677" departSpeed="1.3683" speedFactor="0.8416" arrival="665.00">
        <route edges="N_in S_out"/>
    </vehicle>

    <vehicle id="flow_45_increasing_600_W_straight.1" type="moto" depart="637.00" departLane="1" departPos="138.898" departSpeed="11.4695" speedFactor="0.9471" arrival="665.00">
        <route edges="N_in N_out"/>
    </vehicle>

    <vehicle id="flow_39_increasing_600_S_right.0" type="bus" depart="600.00" departLane="0" departPos="41.7947" departSpeed="9.3575" speedFactor="0.9554" arrival="670.00">
        <route edges="S_in W_out"/>
    </vehicle>

    <vehicle id="flow_41_increasing_600_E_straight.1" type="moto" depart="637.00" departLane="1" departPos="0.9771" departSpeed="9.2024" speedFactor="1.0747" arrival="674.00">
        <route edges="E_in W_out"/>
    </vehicle>

    <vehicle id="flow_41_increasing_600_E_straight.2" type="bus" depart="674.00" departLane="0" departPos="7.5649" departSpeed="10.5675" speedFactor="0.9363" arrival="706.00">
        <route edges="E_in W_out"/>
    </vehicle>

    <vehicle id="flow_47_increasing_600_W_right.1" type="moto" depart="695.00" departLane="0" departPos="188.0912" departSpeed="5.8265" speedFactor="0.8950" arrival="715.00">
        <route edges="W_in S_out"/>
    </vehicle>

    <vehicle id="flow_37_increasing_600_S_straight.2" type="truck" depart="673.00" departLane="0" departPos="27.7577" departSpeed="11.3952" speedFactor="0.9700" arrival="723.00">
        <route edges="S_in N_out"/>
    </vehicle>

    <vehicle id="flow_33_increasing_600_N_straight.2" type="bus" depart="674.00" departLane="1" departPos="22.618" departSpeed="0.2033" speedFactor="1.0217" arrival="723.00">
        <route edges="N_in S_out"/>
    </vehicle>

    <vehicle id="flow_45_increasing_600_W_straight.2" type="truck" depart="674.00" departLane="0" departPos="184.144" departSpeed="0.7413" speedFactor="1.0167" arrival="723.00">
        <route edges="N_in N_out"/>
    </vehicle>

    <vehicle id="flow_35_increasing_600_N_right.1" type="moto" depart="697.00" departLane="1" departPos="24.2894" departSpeed="14.9543" speedFactor="1.2172" arrival="724.00">
        <route edges="N_in W_out"/>
    </vehicle>

    <vehicle id="flow_34_increasing_600_N_left.1" type="car" depart="692.00" departLane="0" departPos="39.6761" departSpeed="7.5407" speedFactor="1.0262" arrival="727.00">
        <route edges="N_in E_out"/>
    </vehicle>

    <vehicle id="flow_39_increasing_600_S_right.1" type="truck" depart="690.00" departLane="1" departPos="127.7831" departSpeed="8.269" speedFactor="0.9234" arrival="730.00">
        <route edges="S_in W_out"/>
    </vehicle>
